Program Version,EnergyPlus, Version 23.2.0-7636e6b3e9, YMD=2025.09.16 16:22
1,5,Environment Title[],Latitude[deg],Longitude[deg],Time Zone[],Elevation[m]
2,8,Day of Simulation[],Month[],Day of Month[],DST Indicator[1=yes 0=no],Hour[],StartMinute[],EndMinute[],DayType
3,5,Cumulative Day of Simulation[],Month[],Day of Month[],DST Indicator[1=yes 0=no],DayType  ! When Daily Meters Requested
4,2,Cumulative Days of Simulation[],Month[]  ! When Monthly Meters Requested
5,1,Cumulative Days of Simulation[] ! When Run Period Meters Requested
6,1,Calendar Year of Simulation[] ! When Annual Meters Requested
35,1,Electricity:Facility [J] !TimeStep
47,1,Electricity:Building [J] !TimeStep
83,1,InteriorLights:Electricity [J] !TimeStep
4101,1,Electricity:HVAC [J] !TimeStep
4164,1,Electricity:Plant [J] !TimeStep
40,11,Electricity:Facility [J] !RunPeriod [Value,Min,Month,Day,Hour,Minute,Max,Month,Day,Hour,Minute]
52,11,Electricity:Building [J] !RunPeriod [Value,Min,Month,Day,Hour,Minute,Max,Month,Day,Hour,Minute]
88,11,InteriorLights:Electricity [J] !RunPeriod [Value,Min,Month,Day,Hour,Minute,Max,Month,Day,Hour,Minute]
4106,11,Electricity:HVAC [J] !RunPeriod [Value,Min,Month,Day,Hour,Minute,Max,Month,Day,Hour,Minute]
4169,11,Electricity:Plant [J] !RunPeriod [Value,Min,Month,Day,Hour,Minute,Max,Month,Day,Hour,Minute]
End of Data Dictionary
1,RUN PERIOD 1,  36.60, 117.05,   8.00, 170.30
2,1, 6, 1, 0, 1, 0.00,15.00,Monday
35,18934422.31802851
47,1360800.0
83,972000.0
4101,2619530.621814628
4164,14954091.696213879
2,1, 6, 1, 0, 1,15.00,30.00,Monday
35,18911061.299946047
47,1360800.0
83,972000.0
4101,2619530.621814628
4164,14930730.678131416
2,1, 6, 1, 0, 1,30.00,45.00,Monday
35,18889721.435156632
47,1360800.0
83,972000.0
4101,2619530.621814628
4164,14909390.813342001
2,1, 6, 1, 0, 1,45.00,60.00,Monday
35,18870157.602370728
47,1360800.0
83,972000.0
4101,2619530.621814628
4164,14889826.980556097
2,1, 6, 1, 0, 2, 0.00,15.00,Monday
35,18872358.968485676
47,1360800.0
83,972000.0
4101,2619530.621814628
4164,14892028.346671047
2,1, 6, 1, 0, 2,15.00,30.00,Monday
35,18874495.838862024
47,1360800.0
83,972000.0
4101,2619530.621814628
4164,14894165.217047393
2,1, 6, 1, 0, 2,30.00,45.00,Monday
35,18876563.792664755
47,1360800.0
83,972000.0
4101,2619530.621814628
4164,14896233.170850126
2,1, 6, 1, 0, 2,45.00,60.00,Monday
35,18878558.64426064
47,1360800.0
83,972000.0
4101,2619530.621814628
4164,14898228.02244601
2,1, 6, 1, 0, 3, 0.00,15.00,Monday
35,18879634.199978467
47,1360800.0
83,972000.0
4101,2619530.621814628
4164,14899303.578163836
2,1, 6, 1, 0, 3,15.00,30.00,Monday
35,18880624.41241409
47,1360800.0
83,972000.0
4101,2619530.621814628
4164,14900293.79059946
2,1, 6, 1, 0, 3,30.00,45.00,Monday
35,18881525.87619981
47,1360800.0
83,972000.0
4101,2619530.621814628
4164,14901195.25438518
2,1, 6, 1, 0, 3,45.00,60.00,Monday
35,18882336.210447043
47,1360800.0
83,972000.0
4101,2619530.621814628
4164,14902005.588632414
2,1, 6, 1, 0, 4, 0.00,15.00,Monday
35,18880379.08401659
47,1360800.0
83,972000.0
4101,2619530.621814628
4164,14900048.46220196
2,1, 6, 1, 0, 4,15.00,30.00,Monday
35,18878405.503918372
47,1360800.0
83,972000.0
4101,2619530.621814628
4164,14898074.882103741
2,1, 6, 1, 0, 4,30.00,45.00,Monday
35,18876415.549716555
47,1360800.0
83,972000.0
4101,2619530.621814628
4164,14896084.927901924
2,1, 6, 1, 0, 4,45.00,60.00,Monday
35,18874409.507493317
47,1360800.0
83,972000.0
4101,2619530.621814628
4164,14894078.885678688
2,1, 6, 1, 0, 5, 0.00,15.00,Monday
35,18871495.216872804
47,1360800.0
83,972000.0
4101,2619530.621814628
4164,14891164.595058173
2,1, 6, 1, 0, 5,15.00,30.00,Monday
35,18868616.983272392
47,1360800.0
83,972000.0
4101,2619530.621814628
4164,14888286.361457761
2,1, 6, 1, 0, 5,30.00,45.00,Monday
35,18865774.050558046
47,1360800.0
83,972000.0
4101,2619530.621814628
4164,14885443.428743415
2,1, 6, 1, 0, 5,45.00,60.00,Monday
35,18862965.76156907
47,1360800.0
83,972000.0
4101,2619530.621814628
4164,14882635.13975444
2,1, 6, 1, 0, 6, 0.00,15.00,Monday
35,18859465.357405316
47,1360800.0
83,972000.0
4101,2619530.621814628
4164,14879134.735590687
2,1, 6, 1, 0, 6,15.00,30.00,Monday
35,18856009.947379235
47,1360800.0
83,972000.0
4101,2619530.621814628
4164,14875679.325564604
2,1, 6, 1, 0, 6,30.00,45.00,Monday
35,18852630.97826393
47,1360800.0
83,972000.0
4101,2619530.621814628
4164,14872300.3564493
2,1, 6, 1, 0, 6,45.00,60.00,Monday
35,18849310.19526151
47,1360800.0
83,972000.0
4101,2619530.621814628
4164,14868979.57344688
2,1, 6, 1, 0, 7, 0.00,15.00,Monday
35,18849991.211820994
47,1360800.0
83,972000.0
4101,2619530.621814628
4164,14869660.590006363
2,1, 6, 1, 0, 7,15.00,30.00,Monday
35,18850674.84246121
47,1360800.0
83,972000.0
4101,2619530.621814628
4164,14870344.220646579
2,1, 6, 1, 0, 7,30.00,45.00,Monday
35,18851361.05756116
47,1360800.0
83,972000.0
4101,2619530.621814628
4164,14871030.435746528
2,1, 6, 1, 0, 7,45.00,60.00,Monday
35,18852049.967650183
47,1360800.0
83,972000.0
4101,2619530.621814628
4164,14871719.345835552
2,1, 6, 1, 0, 8, 0.00,15.00,Monday
35,18855484.9925456
47,1360800.0
83,972000.0
4101,2619530.621814628
4164,14875154.370730972
2,1, 6, 1, 0, 8,15.00,30.00,Monday
35,18859006.554259412
47,1360800.0
83,972000.0
4101,2619530.621814628
4164,14878675.932444781
2,1, 6, 1, 0, 8,30.00,45.00,Monday
35,18862583.51824174
47,1360800.0
83,972000.0
4101,2619530.621814628
4164,14882252.89642711
2,1, 6, 1, 0, 8,45.00,60.00,Monday
35,18866235.08492345
47,1360800.0
83,972000.0
4101,2619530.621814628
4164,14885904.46310882
2,1, 6, 1, 0, 9, 0.00,15.00,Monday
35,42793080.967098296
47,25272000.0
83,17496000.0
4101,2626797.522996898
4164,14894283.444101403
2,1, 6, 1, 0, 9,15.00,30.00,Monday
35,42809986.86651997
47,25272000.0
83,17496000.0
4101,2634922.8186697904
4164,14903064.04785019
2,1, 6, 1, 0, 9,30.00,45.00,Monday
35,43902113.179048344
47,25272000.0
83,17496000.0
4101,2658026.646378682
4164,15972086.532669665
2,1, 6, 1, 0, 9,45.00,60.00,Monday
35,45349471.81118659
47,25272000.0
83,17496000.0
4101,2688345.096582393
4164,17389126.7146042
2,1, 6, 1, 0,10, 0.00,15.00,Monday
35,62167625.6368585
47,35964000.0
83,18468000.0
4101,2899767.593568259
4164,23303858.04329025
2,1, 6, 1, 0,10,15.00,30.00,Monday
35,63776652.18751205
47,35964000.0
83,18468000.0
4101,2941273.4869970246
4164,24871378.700515028
2,1, 6, 1, 0,10,30.00,45.00,Monday
35,65276097.64747723
47,35964000.0
83,18468000.0
4101,2980186.9127029967
4164,26331910.73477423
2,1, 6, 1, 0,10,45.00,60.00,Monday
35,66748572.136305176
47,35964000.0
83,18468000.0
4101,3014718.4633542686
4164,27769853.672950912
2,1, 6, 1, 0,11, 0.00,15.00,Monday
35,69358297.07446858
47,36936000.0
83,19440000.0
4101,3046478.1580751943
4164,29375818.91639338
2,1, 6, 1, 0,11,15.00,30.00,Monday
35,71053523.94431552
47,36936000.0
83,19440000.0
4101,3075299.671478321
4164,31042224.272837203
2,1, 6, 1, 0,11,30.00,45.00,Monday
35,72830020.7169754
47,36936000.0
83,19440000.0
4101,3108478.3218725985
4164,32785542.395102818
2,1, 6, 1, 0,11,45.00,60.00,Monday
35,74602580.60419193
47,36936000.0
83,19440000.0
4101,3145154.6221848372
4164,34521425.982007094
2,1, 6, 1, 0,12, 0.00,15.00,Monday
35,74124471.03335732
47,35964000.0
83,18468000.0
4101,3109740.5914029507
4164,35050730.44195438
2,1, 6, 1, 0,12,15.00,30.00,Monday
35,75130020.29078604
47,35964000.0
83,18468000.0
4101,3137138.5436965004
4164,36028881.74708955
2,1, 6, 1, 0,12,30.00,45.00,Monday
35,76114256.73705104
47,35964000.0
83,18468000.0
4101,3161537.3511665403
4164,36988719.385884486
2,1, 6, 1, 0,12,45.00,60.00,Monday
35,75990426.61838771
47,35964000.0
83,18468000.0
4101,3179444.2674648105
4164,36846982.350922905
2,1, 6, 1, 0,13, 0.00,15.00,Monday
35,72978112.69794457
47,33048000.0
83,15552000.0
4101,3043747.1515776403
4164,36886365.54636693
2,1, 6, 1, 0,13,15.00,30.00,Monday
35,72099137.9221976
47,33048000.0
83,15552000.0
4101,3033562.9455243596
4164,36017574.976673245
2,1, 6, 1, 0,13,30.00,45.00,Monday
35,71643363.46282014
47,33048000.0
83,15552000.0
4101,3032514.738333153
4164,35562848.72448699
2,1, 6, 1, 0,13,45.00,60.00,Monday
35,71267915.46684375
47,33048000.0
83,15552000.0
4101,3033854.6908835336
4164,35186060.775960214
2,1, 6, 1, 0,14, 0.00,15.00,Monday
35,73395581.45561515
47,34992000.0
83,17496000.0
4101,3176028.3650143603
4164,35227553.09060077
2,1, 6, 1, 0,14,15.00,30.00,Monday
35,72432174.60578972
47,34992000.0
83,17496000.0
4101,3196533.4190274337
4164,34243641.186762296
2,1, 6, 1, 0,14,30.00,45.00,Monday
35,71432089.82238331
47,34992000.0
83,17496000.0
4101,3207544.03157195
4164,33232545.790811375
2,1, 6, 1, 0,14,45.00,60.00,Monday
35,70542854.46498695
47,34992000.0
83,17496000.0
4101,3216401.2509580106
4164,32334453.21402894
2,1, 6, 1, 0,15, 0.00,15.00,Monday
35,69793789.3639671
47,34992000.0
83,19440000.0
4101,3242441.451898676
4164,31559347.91206844
2,1, 6, 1, 0,15,15.00,30.00,Monday
35,68964486.72012495
47,34992000.0
83,19440000.0
4101,3256991.0353247263
4164,30715495.684800223
2,1, 6, 1, 0,15,30.00,45.00,Monday
35,68200000.27803122
47,34992000.0
83,19440000.0
4101,3277345.543251153
4164,29930654.734780062
2,1, 6, 1, 0,15,45.00,60.00,Monday
35,67482956.8239618
47,34992000.0
83,19440000.0
4101,3304187.6611185065
4164,29186769.16284329
2,1, 6, 1, 0,16, 0.00,15.00,Monday
35,64554670.529430546
47,33048000.0
83,19440000.0
4101,3261471.6510539446
4164,28245198.878376607
2,1, 6, 1, 0,16,15.00,30.00,Monday
35,64125853.07476384
47,33048000.0
83,19440000.0
4101,3289471.109445505
4164,27788381.965318345
2,1, 6, 1, 0,16,30.00,45.00,Monday
35,63621832.424820155
47,33048000.0
83,19440000.0
4101,3297643.1712617204
4164,27276189.253558442
2,1, 6, 1, 0,16,45.00,60.00,Monday
35,63090969.775718294
47,33048000.0
83,19440000.0
4101,3293680.2343438817
4164,26749289.541374415
2,1, 6, 1, 0,17, 0.00,15.00,Monday
35,57691053.88682663
47,29160000.0
83,19440000.0
4101,3146902.644461004
4164,25384151.24236562
2,1, 6, 1, 0,17,15.00,30.00,Monday
35,57271348.59859259
47,29160000.0
83,19440000.0
4101,3126275.2444422087
4164,24985073.35415038
2,1, 6, 1, 0,17,30.00,45.00,Monday
35,56991655.68132455
47,29160000.0
83,19440000.0
4101,3116596.264008208
4164,24715059.417316347
2,1, 6, 1, 0,17,45.00,60.00,Monday
35,56749024.26762857
47,29160000.0
83,19440000.0
4101,3110755.0916581526
4164,24478269.175970424
2,1, 6, 1, 0,18, 0.00,15.00,Monday
35,56720809.83763491
47,29160000.0
83,19440000.0
4101,3105938.1385625917
4164,24454871.699072324
2,1, 6, 1, 0,18,15.00,30.00,Monday
35,56710542.800153464
47,29160000.0
83,19440000.0
4101,3101887.971590543
4164,24448654.828562927
2,1, 6, 1, 0,18,30.00,45.00,Monday
35,56777013.24858908
47,29160000.0
83,19440000.0
4101,3105393.941248481
4164,24511619.307340603
2,1, 6, 1, 0,18,45.00,60.00,Monday
35,56865760.03648681
47,29160000.0
83,19440000.0
4101,3111164.055251951
4164,24594595.981234867
2,1, 6, 1, 0,19, 0.00,15.00,Monday
35,41947291.423182815
47,17496000.0
83,11664000.0
4101,2857942.427244958
4164,21593348.99593786
2,1, 6, 1, 0,19,15.00,30.00,Monday
35,41531367.02364087
47,17496000.0
83,11664000.0
4101,2834539.5647972273
4164,21200827.45884365
2,1, 6, 1, 0,19,30.00,45.00,Monday
35,41365229.366784185
47,17496000.0
83,11664000.0
4101,2820480.4912364203
4164,21048748.87554777
2,1, 6, 1, 0,19,45.00,60.00,Monday
35,41204506.505527385
47,17496000.0
83,11664000.0
4101,2807603.1069616983
4164,20900903.398565684
2,1, 6, 1, 0,20, 0.00,15.00,Monday
35,36009314.49306567
47,13608000.0
83,7776000.0
4101,2749665.696626705
4164,19651648.796438966
2,1, 6, 1, 0,20,15.00,30.00,Monday
35,35561802.06132739
47,13608000.0
83,7776000.0
4101,2727298.8786133835
4164,19226503.18271401
2,1, 6, 1, 0,20,30.00,45.00,Monday
35,35339030.02658672
47,13608000.0
83,7776000.0
4101,2713048.308623079
4164,19017981.717963643
2,1, 6, 1, 0,20,45.00,60.00,Monday
35,35208434.82401543
47,13608000.0
83,7776000.0
4101,2702438.454871554
4164,18897996.36914388
2,1, 6, 1, 0,21, 0.00,15.00,Monday
35,35108166.09002241
47,13608000.0
83,7776000.0
4101,2693670.849192695
4164,18806495.240829714
2,1, 6, 1, 0,21,15.00,30.00,Monday
35,35046467.64787389
47,13608000.0
83,7776000.0
4101,2686402.4863451477
4164,18752065.16152875
2,1, 6, 1, 0,21,30.00,45.00,Monday
35,35011398.40348642
47,13608000.0
83,7776000.0
4101,2680148.568341805
4164,18723249.83514462
2,1, 6, 1, 0,21,45.00,60.00,Monday
35,34999249.09501387
47,13608000.0
83,7776000.0
4101,2676984.5875852434
4164,18714264.50742863
2,1, 6, 1, 0,22, 0.00,15.00,Monday
35,19063009.2853425
47,1360800.0
83,972000.0
4101,2619530.621814628
4164,15082678.66352787
2,1, 6, 1, 0,22,15.00,30.00,Monday
35,18951745.082079004
47,1360800.0
83,972000.0
4101,2619530.621814628
4164,14971414.460264375
2,1, 6, 1, 0,22,30.00,45.00,Monday
35,18955472.477085587
47,1360800.0
83,972000.0
4101,2619530.621814628
4164,14975141.855270958
2,1, 6, 1, 0,22,45.00,60.00,Monday
35,18959250.45177504
47,1360800.0
83,972000.0
4101,2619530.621814628
4164,14978919.82996041
2,1, 6, 1, 0,23, 0.00,15.00,Monday
35,18960470.644542404
47,1360800.0
83,972000.0
4101,2619530.621814628
4164,14980140.022727774
2,1, 6, 1, 0,23,15.00,30.00,Monday
35,18961677.444617834
47,1360800.0
83,972000.0
4101,2619530.621814628
4164,14981346.822803205
2,1, 6, 1, 0,23,30.00,45.00,Monday
35,18962849.802255563
47,1360800.0
83,972000.0
4101,2619530.621814628
4164,14982519.180440933
2,1, 6, 1, 0,23,45.00,60.00,Monday
35,18964035.589324024
47,1360800.0
83,972000.0
4101,2619530.621814628
4164,14983704.967509393
2,1, 6, 1, 0,24, 0.00,15.00,Monday
35,18963120.763392698
47,1360800.0
83,972000.0
4101,2619530.621814628
4164,14982790.141578067
2,1, 6, 1, 0,24,15.00,30.00,Monday
35,18962177.173653368
47,1360800.0
83,972000.0
4101,2619530.621814628
4164,14981846.551838737
2,1, 6, 1, 0,24,30.00,45.00,Monday
35,18961162.581106577
47,1360800.0
83,972000.0
4101,2619530.621814628
4164,14980831.959291948
2,1, 6, 1, 0,24,45.00,60.00,Monday
35,18960098.251366798
47,1360800.0
83,972000.0
4101,2619530.621814628
4164,14979767.629552167
2,2, 6, 2, 0, 1, 0.00,15.00,Tuesday
35,18954696.141334984
47,1360800.0
83,972000.0
4101,2619530.621814628
4164,14974365.519520355
2,2, 6, 2, 0, 1,15.00,30.00,Tuesday
35,18949378.5775471
47,1360800.0
83,972000.0
4101,2619530.621814628
4164,14969047.95573247
2,2, 6, 2, 0, 1,30.00,45.00,Tuesday
35,18944144.51488228
47,1360800.0
83,972000.0
4101,2619530.621814628
4164,14963813.89306765
2,2, 6, 2, 0, 1,45.00,60.00,Tuesday
35,18938992.583150562
47,1360800.0
83,972000.0
4101,2619530.621814628
4164,14958661.961335933
2,2, 6, 2, 0, 2, 0.00,15.00,Tuesday
35,18931471.404609308
47,1360800.0
83,972000.0
4101,2619530.621814628
4164,14951140.782794677
2,2, 6, 2, 0, 2,15.00,30.00,Tuesday
35,18924155.852317825
47,1360800.0
83,972000.0
4101,2619530.621814628
4164,14943825.230503196
2,2, 6, 2, 0, 2,30.00,45.00,Tuesday
35,18917038.602698885
47,1360800.0
83,972000.0
4101,2619530.621814628
4164,14936707.980884254
2,2, 6, 2, 0, 2,45.00,60.00,Tuesday
35,18910112.984977502
47,1360800.0
83,972000.0
4101,2619530.621814628
4164,14929782.363162873
2,2, 6, 2, 0, 3, 0.00,15.00,Tuesday
35,18901314.641957037
47,1360800.0
83,972000.0
4101,2619530.621814628
4164,14920984.020142408
2,2, 6, 2, 0, 3,15.00,30.00,Tuesday
35,18892836.45559464
47,1360800.0
83,972000.0
4101,2619530.621814628
4164,14912505.833780011
2,2, 6, 2, 0, 3,30.00,45.00,Tuesday
35,18884661.86702003
47,1360800.0
83,972000.0
4101,2619530.621814628
4164,14904331.2452054
2,2, 6, 2, 0, 3,45.00,60.00,Tuesday
35,18876775.808977306
47,1360800.0
83,972000.0
4101,2619530.621814628
4164,14896445.187162675
2,2, 6, 2, 0, 4, 0.00,15.00,Tuesday
35,18867226.60878821
47,1360800.0
83,972000.0
4101,2619530.621814628
4164,14886895.986973582
2,2, 6, 2, 0, 4,15.00,30.00,Tuesday
35,18858123.151489623
47,1360800.0
83,972000.0
4101,2619530.621814628
4164,14877792.529674992
2,2, 6, 2, 0, 4,30.00,45.00,Tuesday
35,18849418.393672425
47,1360800.0
83,972000.0
4101,2619530.621814628
4164,14869087.771857798
2,2, 6, 2, 0, 4,45.00,60.00,Tuesday
35,18841118.030591812
47,1360800.0
83,972000.0
4101,2619530.621814628
4164,14860787.408777183
2,2, 6, 2, 0, 5, 0.00,15.00,Tuesday
35,18833768.98653885
47,1360800.0
83,972000.0
4101,2619530.621814628
4164,14853438.36472422
2,2, 6, 2, 0, 5,15.00,30.00,Tuesday
35,18826725.075345818
47,1360800.0
83,972000.0
4101,2619530.621814628
4164,14846394.453531189
2,2, 6, 2, 0, 5,30.00,45.00,Tuesday
35,18819968.396663077
47,1360800.0
83,972000.0
4101,2619530.621814628
4164,14839637.774848448
2,2, 6, 2, 0, 5,45.00,60.00,Tuesday
35,18813481.99779707
47,1360800.0
83,972000.0
4101,2619530.621814628
4164,14833151.37598244
2,2, 6, 2, 0, 6, 0.00,15.00,Tuesday
35,18810959.671420626
47,1360800.0
83,972000.0
4101,2619530.621814628
4164,14830629.049605995
2,2, 6, 2, 0, 6,15.00,30.00,Tuesday
35,18808477.207298875
47,1360800.0
83,972000.0
4101,2619530.621814628
4164,14828146.585484244
2,2, 6, 2, 0, 6,30.00,45.00,Tuesday
35,18806033.61305855
47,1360800.0
83,972000.0
4101,2619530.621814628
4164,14825702.991243917
2,2, 6, 2, 0, 6,45.00,60.00,Tuesday
35,18803628.245830055
47,1360800.0
83,972000.0
4101,2619530.621814628
4164,14823297.624015426
2,2, 6, 2, 0, 7, 0.00,15.00,Tuesday
35,18805244.20874092
47,1360800.0
83,972000.0
4101,2619530.621814628
4164,14824913.586926289
2,2, 6, 2, 0, 7,15.00,30.00,Tuesday
35,18806864.57640956
47,1360800.0
83,972000.0
4101,2619530.621814628
4164,14826533.954594929
2,2, 6, 2, 0, 7,30.00,45.00,Tuesday
35,18808489.498598468
47,1360800.0
83,972000.0
4101,2619530.621814628
4164,14828158.876783837
2,2, 6, 2, 0, 7,45.00,60.00,Tuesday
35,18810118.763560712
47,1360800.0
83,972000.0
4101,2619530.621814628
4164,14829788.141746081
2,2, 6, 2, 0, 8, 0.00,15.00,Tuesday
35,18816821.400760196
47,1360800.0
83,972000.0
4101,2619530.621814628
4164,14836490.778945565
2,2, 6, 2, 0, 8,15.00,30.00,Tuesday
35,18823784.603402928
47,1360800.0
83,972000.0
4101,2619530.621814628
4164,14843453.981588298
2,2, 6, 2, 0, 8,30.00,45.00,Tuesday
35,18831022.91980767
47,1360800.0
83,972000.0
4101,2619530.621814628
4164,14850692.29799304
2,2, 6, 2, 0, 8,45.00,60.00,Tuesday
35,18838551.74707951
47,1360800.0
83,972000.0
4101,2619530.621814628
4164,14858221.12526488
2,2, 6, 2, 0, 9, 0.00,15.00,Tuesday
35,42760082.38829029
47,25272000.0
83,17496000.0
4101,2622421.1033181064
4164,14865661.284972195
2,2, 6, 2, 0, 9,15.00,30.00,Tuesday
35,42770214.02833325
47,25272000.0
83,17496000.0
4101,2624865.2275892426
4164,14873348.800744008
2,2, 6, 2, 0, 9,30.00,45.00,Tuesday
35,42792519.709019296
47,25272000.0
83,17496000.0
4101,2639263.1081700465
4164,14881256.600849256
2,2, 6, 2, 0, 9,45.00,60.00,Tuesday
35,43483481.747961916
47,25272000.0
83,17496000.0
4101,2666106.4216669155
4164,15545375.326295
2,2, 6, 2, 0,10, 0.00,15.00,Tuesday
35,58840421.421947405
47,35964000.0
83,18468000.0
4101,2836810.2202057526
4164,20039611.201741654
2,2, 6, 2, 0,10,15.00,30.00,Tuesday
35,60061249.05134728
47,35964000.0
83,18468000.0
4101,2865036.991044053
4164,21232212.060303234
2,2, 6, 2, 0,10,30.00,45.00,Tuesday
35,61000614.413311966
47,35964000.0
83,18468000.0
4101,2902612.814135939
4164,22134001.599176034
2,2, 6, 2, 0,10,45.00,60.00,Tuesday
35,61733871.04144348
47,35964000.0
83,18468000.0
4101,2934653.9945825133
4164,22835217.046860974
2,2, 6, 2, 0,11, 0.00,15.00,Tuesday
35,63301574.22702468
47,36936000.0
83,19440000.0
4101,2968227.655792766
4164,23397346.571231924
2,2, 6, 2, 0,11,15.00,30.00,Tuesday
35,63859769.82632225
47,36936000.0
83,19440000.0
4101,3000374.774744173
4164,23923395.051578086
2,2, 6, 2, 0,11,30.00,45.00,Tuesday
35,64367687.661054365
47,36936000.0
83,19440000.0
4101,3031000.8610388455
4164,24400686.80001552
2,2, 6, 2, 0,11,45.00,60.00,Tuesday
35,64832652.37992524
47,36936000.0
83,19440000.0
4101,3061029.4425276965
4164,24835622.93739755
2,2, 6, 2, 0,12, 0.00,15.00,Tuesday
35,63499865.97223974
47,35964000.0
83,18468000.0
4101,3025472.55640505
4164,24510393.415834703
2,2, 6, 2, 0,12,15.00,30.00,Tuesday
35,63758004.84373934
47,35964000.0
83,18468000.0
4101,3044499.759931449
4164,24749505.083807897
2,2, 6, 2, 0,12,30.00,45.00,Tuesday
35,64025168.81347048
47,35964000.0
83,18468000.0
4101,3065740.3298811913
4164,24995428.483589295
2,2, 6, 2, 0,12,45.00,60.00,Tuesday
35,64259875.430969566
47,35964000.0
83,18468000.0
4101,3086631.663995824
4164,25209243.766973753
2,2, 6, 2, 0,13, 0.00,15.00,Tuesday
35,60032312.23072355
47,33048000.0
83,15552000.0
4101,2975430.557557998
4164,24008881.673165556
2,2, 6, 2, 0,13,15.00,30.00,Tuesday
35,59986403.7083828
47,33048000.0
83,15552000.0
4101,2975585.2846103953
4164,23962818.423772406
2,2, 6, 2, 0,13,30.00,45.00,Tuesday
35,60070424.00971208
47,33048000.0
83,15552000.0
4101,2985641.3243308663
4164,24036782.685381215
2,2, 6, 2, 0,13,45.00,60.00,Tuesday
35,60198935.298827864
47,33048000.0
83,15552000.0
4101,3001838.7640005862
4164,24149096.53482728
2,2, 6, 2, 0,14, 0.00,15.00,Tuesday
35,63806041.447615415
47,34992000.0
83,17496000.0
4101,3162884.504778719
4164,25651156.942836713
2,2, 6, 2, 0,14,15.00,30.00,Tuesday
35,64309310.12786931
47,34992000.0
83,17496000.0
4101,3217228.71430676
4164,26100081.413562547
2,2, 6, 2, 0,14,30.00,45.00,Tuesday
35,64718198.080270946
47,34992000.0
83,17496000.0
4101,3258896.8811124284
4164,26467301.199158527
2,2, 6, 2, 0,14,45.00,60.00,Tuesday
35,65124268.576685384
47,34992000.0
83,17496000.0
4101,3297214.5741714104
4164,26835054.002513975
2,2, 6, 2, 0,15, 0.00,15.00,Tuesday
35,65924309.980313085
47,34992000.0
83,19440000.0
4101,3356131.510637099
4164,27576178.46967599
2,2, 6, 2, 0,15,15.00,30.00,Tuesday
35,66639521.066723876
47,34992000.0
83,19440000.0
4101,3403043.238356083
4164,28244477.828367792
2,2, 6, 2, 0,15,30.00,45.00,Tuesday
35,67388292.38974403
47,34992000.0
83,19440000.0
4101,3425346.8641246506
4164,28970945.525619384
2,2, 6, 2, 0,15,45.00,60.00,Tuesday
35,67972827.25632852
47,34992000.0
83,19440000.0
4101,3432433.9214475635
4164,29548393.334880956
2,2, 6, 2, 0,16, 0.00,15.00,Tuesday
35,65856219.216934726
47,33048000.0
83,19440000.0
4101,3343919.8584413705
4164,29464299.358493358
2,2, 6, 2, 0,16,15.00,30.00,Tuesday
35,66093347.82072697
47,33048000.0
83,19440000.0
4101,3322550.9952824763
4164,29722796.825444505
2,2, 6, 2, 0,16,30.00,45.00,Tuesday
35,66474861.87612856
47,33048000.0
83,19440000.0
4101,3315574.4587051687
4164,30111287.417423405
2,2, 6, 2, 0,16,45.00,60.00,Tuesday
35,66901602.57102736
47,33048000.0
83,19440000.0
4101,3314301.9051818233
4164,30539300.665845536
2,2, 6, 2, 0,17, 0.00,15.00,Tuesday
35,61669581.0441861
47,29160000.0
83,19440000.0
4101,3172181.395240297
4164,29337399.648945805
2,2, 6, 2, 0,17,15.00,30.00,Tuesday
35,61320535.39850094
47,29160000.0
83,19440000.0
4101,3164045.2676563407
4164,28996490.130844608
2,2, 6, 2, 0,17,30.00,45.00,Tuesday
35,61271746.672090515
47,29160000.0
83,19440000.0
4101,3177587.695133828
4164,28934158.97695669
2,2, 6, 2, 0,17,45.00,60.00,Tuesday
35,61308827.20071939
47,29160000.0
83,19440000.0
4101,3201191.884365376
4164,28947635.316354018
2,2, 6, 2, 0,18, 0.00,15.00,Tuesday
35,61352744.76461432
47,29160000.0
83,19440000.0
4101,3227624.103423548
4164,28965120.661190778
2,2, 6, 2, 0,18,15.00,30.00,Tuesday
35,61373169.15940001
47,29160000.0
83,19440000.0
4101,3254455.3483283883
4164,28958713.81107163
2,2, 6, 2, 0,18,30.00,45.00,Tuesday
35,61187790.57915923
47,29160000.0
83,19440000.0
4101,3259967.933449504
4164,28767822.645709734
2,2, 6, 2, 0,18,45.00,60.00,Tuesday
35,60882220.05410781
47,29160000.0
83,19440000.0
4101,3253877.656920725
4164,28468342.397187088
2,2, 6, 2, 0,19, 0.00,15.00,Tuesday
35,45482088.42901012
47,17496000.0
83,11664000.0
4101,2934400.2058081757
4164,25051688.223201957
2,2, 6, 2, 0,19,15.00,30.00,Tuesday
35,44381850.66562473
47,17496000.0
83,11664000.0
4101,2893919.541309055
4164,23991931.124315687
2,2, 6, 2, 0,19,30.00,45.00,Tuesday
35,43528409.15440862
47,17496000.0
83,11664000.0
4101,2869582.742418687
4164,23162826.41198993
2,2, 6, 2, 0,19,45.00,60.00,Tuesday
35,42797574.96276429
47,17496000.0
83,11664000.0
4101,2849979.1010615807
4164,22451595.86170271
2,2, 6, 2, 0,20, 0.00,15.00,Tuesday
35,36967980.7687326
47,13608000.0
83,7776000.0
4101,2783644.896560143
4164,20576335.872172456
2,2, 6, 2, 0,20,15.00,30.00,Tuesday
35,35946155.482674584
47,13608000.0
83,7776000.0
4101,2757028.71071418
4164,19581126.7719604
2,2, 6, 2, 0,20,30.00,45.00,Tuesday
35,35200363.69719591
47,13608000.0
83,7776000.0
4101,2739949.0774030564
4164,18852414.619792856
2,2, 6, 2, 0,20,45.00,60.00,Tuesday
35,34578540.87697884
47,13608000.0
83,7776000.0
4101,2727300.672339871
4164,18243240.204638965
2,2, 6, 2, 0,21, 0.00,15.00,Tuesday
35,34185466.30554625
47,13608000.0
83,7776000.0
4101,2717281.2930388227
4164,17860185.012507427
2,2, 6, 2, 0,21,15.00,30.00,Tuesday
35,33849340.23372681
47,13608000.0
83,7776000.0
4101,2709023.0522049693
4164,17532317.18152184
2,2, 6, 2, 0,21,30.00,45.00,Tuesday
35,33544540.816137485
47,13608000.0
83,7776000.0
4101,2701984.057850367
4164,17234556.75828712
2,2, 6, 2, 0,21,45.00,60.00,Tuesday
35,33266128.61355114
47,13608000.0
83,7776000.0
4101,2695965.12342365
4164,16962163.49012749
2,2, 6, 2, 0,22, 0.00,15.00,Tuesday
35,18878265.54722327
47,1360800.0
83,972000.0
4101,2619530.621814628
4164,14897934.92540864
2,2, 6, 2, 0,22,15.00,30.00,Tuesday
35,18870968.58807174
47,1360800.0
83,972000.0
4101,2619530.621814628
4164,14890637.96625711
2,2, 6, 2, 0,22,30.00,45.00,Tuesday
35,18869155.24307824
47,1360800.0
83,972000.0
4101,2619530.621814628
4164,14888824.621263608
2,2, 6, 2, 0,22,45.00,60.00,Tuesday
35,18867309.071662307
47,1360800.0
83,972000.0
4101,2619530.621814628
4164,14886978.449847676
2,2, 6, 2, 0,23, 0.00,15.00,Tuesday
35,18868654.581356175
47,1360800.0
83,972000.0
4101,2619530.621814628
4164,14888323.959541546
2,2, 6, 2, 0,23,15.00,30.00,Tuesday
35,18869980.11489708
47,1360800.0
83,972000.0
4101,2619530.621814628
4164,14889649.493082449
2,2, 6, 2, 0,23,30.00,45.00,Tuesday
35,18871285.56627508
47,1360800.0
83,972000.0
4101,2619530.621814628
4164,14890954.944460448
2,2, 6, 2, 0,23,45.00,60.00,Tuesday
35,18872570.66072243
47,1360800.0
83,972000.0
4101,2619530.621814628
4164,14892240.038907802
2,2, 6, 2, 0,24, 0.00,15.00,Tuesday
35,18873416.361256804
47,1360800.0
83,972000.0
4101,2619530.621814628
4164,14893085.739442173
2,2, 6, 2, 0,24,15.00,30.00,Tuesday
35,18874252.631365195
47,1360800.0
83,972000.0
4101,2619530.621814628
4164,14893922.009550564
2,2, 6, 2, 0,24,30.00,45.00,Tuesday
35,18875079.58572534
47,1360800.0
83,972000.0
4101,2619530.621814628
4164,14894748.963910712
2,2, 6, 2, 0,24,45.00,60.00,Tuesday
35,18875897.48676623
47,1360800.0
83,972000.0
4101,2619530.621814628
4164,14895566.864951601
2,3, 6, 3, 0, 1, 0.00,15.00,Wednesday
35,18875828.129177924
47,1360800.0
83,972000.0
4101,2619530.621814628
4164,14895497.507363293
2,3, 6, 3, 0, 1,15.00,30.00,Wednesday
35,18875742.966334924
47,1360800.0
83,972000.0
4101,2619530.621814628
4164,14895412.344520293
2,3, 6, 3, 0, 1,30.00,45.00,Wednesday
35,18875642.12937469
47,1360800.0
83,972000.0
4101,2619530.621814628
4164,14895311.507560061
2,3, 6, 3, 0, 1,45.00,60.00,Wednesday
35,18875525.558206413
47,1360800.0
83,972000.0
4101,2619530.621814628
4164,14895194.936391782
2,3, 6, 3, 0, 2, 0.00,15.00,Wednesday
35,18875409.269836053
47,1360800.0
83,972000.0
4101,2619530.621814628
4164,14895078.648021422
2,3, 6, 3, 0, 2,15.00,30.00,Wednesday
35,18875277.463512097
47,1360800.0
83,972000.0
4101,2619530.621814628
4164,14894946.841697467
2,3, 6, 3, 0, 2,30.00,45.00,Wednesday
35,18875130.31434445
47,1360800.0
83,972000.0
4101,2619530.621814628
4164,14894799.692529822
2,3, 6, 3, 0, 2,45.00,60.00,Wednesday
35,18874968.017106667
47,1360800.0
83,972000.0
4101,2619530.621814628
4164,14894637.395292038
2,3, 6, 3, 0, 3, 0.00,15.00,Wednesday
35,18868989.995987423
47,1360800.0
83,972000.0
4101,2619530.621814628
4164,14888659.374172792
2,3, 6, 3, 0, 3,15.00,30.00,Wednesday
35,18863195.853382543
47,1360800.0
83,972000.0
4101,2619530.621814628
4164,14882865.231567914
2,3, 6, 3, 0, 3,30.00,45.00,Wednesday
35,18857577.279188186
47,1360800.0
83,972000.0
4101,2619530.621814628
4164,14877246.657373557
2,3, 6, 3, 0, 3,45.00,60.00,Wednesday
35,18852110.12174008
47,1360800.0
83,972000.0
4101,2619530.621814628
4164,14871779.49992545
2,3, 6, 3, 0, 4, 0.00,15.00,Wednesday
35,18843596.404365744
47,1360800.0
83,972000.0
4101,2619530.621814628
4164,14863265.782551115
2,3, 6, 3, 0, 4,15.00,30.00,Wednesday
35,18835489.95261589
47,1360800.0
83,972000.0
4101,2619530.621814628
4164,14855159.33080126
2,3, 6, 3, 0, 4,30.00,45.00,Wednesday
35,18827762.94067519
47,1360800.0
83,972000.0
4101,2619530.621814628
4164,14847432.31886056
2,3, 6, 3, 0, 4,45.00,60.00,Wednesday
35,18820390.19014792
47,1360800.0
83,972000.0
4101,2619530.621814628
4164,14840059.56833329
2,3, 6, 3, 0, 5, 0.00,15.00,Wednesday
35,18813348.62880469
47,1360800.0
83,972000.0
4101,2619530.621814628
4164,14833018.006990062
2,3, 6, 3, 0, 5,15.00,30.00,Wednesday
35,18806617.028270043
47,1360800.0
83,972000.0
4101,2619530.621814628
4164,14826286.406455413
2,3, 6, 3, 0, 5,30.00,45.00,Wednesday
35,18800175.95147691
47,1360800.0
83,972000.0
4101,2619530.621814628
4164,14819845.329662278
2,3, 6, 3, 0, 5,45.00,60.00,Wednesday
35,18794007.761416096
47,1360800.0
83,972000.0
4101,2619530.621814628
4164,14813677.139601465
2,3, 6, 3, 0, 6, 0.00,15.00,Wednesday
35,18790508.387002435
47,1360800.0
83,972000.0
4101,2619530.621814628
4164,14810177.765187804
2,3, 6, 3, 0, 6,15.00,30.00,Wednesday
35,18787095.785712413
47,1360800.0
83,972000.0
4101,2619530.621814628
4164,14806765.163897783
2,3, 6, 3, 0, 6,30.00,45.00,Wednesday
35,18783767.35001336
47,1360800.0
83,972000.0
4101,2619530.621814628
4164,14803436.728198731
2,3, 6, 3, 0, 6,45.00,60.00,Wednesday
35,18780519.879641168
47,1360800.0
83,972000.0
4101,2619530.621814628
4164,14800189.257826539
2,3, 6, 3, 0, 7, 0.00,15.00,Wednesday
35,18781645.92511942
47,1360800.0
83,972000.0
4101,2619530.621814628
4164,14801315.303304791
2,3, 6, 3, 0, 7,15.00,30.00,Wednesday
35,18782768.69409172
47,1360800.0
83,972000.0
4101,2619530.621814628
4164,14802438.07227709
2,3, 6, 3, 0, 7,30.00,45.00,Wednesday
35,18783887.840412986
47,1360800.0
83,972000.0
4101,2619530.621814628
4164,14803557.218598356