Program Version,EnergyPlus, Version 23.2.0-7636e6b3e9, YMD=2025.04.15 22:15
1,5,Environment Title[],Latitude[deg],Longitude[deg],Time Zone[],Elevation[m]
2,8,Day of Simulation[],Month[],Day of Month[],DST Indicator[1=yes 0=no],Hour[],StartMinute[],EndMinute[],DayType
3,5,Cumulative Day of Simulation[],Month[],Day of Month[],DST Indicator[1=yes 0=no],DayType  ! When Daily Meters Requested
4,2,Cumulative Days of Simulation[],Month[]  ! When Monthly Meters Requested
5,1,Cumulative Days of Simulation[] ! When Run Period Meters Requested
6,1,Calendar Year of Simulation[] ! When Annual Meters Requested
24,1,Electricity:Facility [J] !TimeStep
36,1,Electricity:Building [J] !TimeStep
72,1,InteriorLights:Electricity [J] !TimeStep
1205,1,Electricity:HVAC [J] !TimeStep
1268,1,Electricity:Plant [J] !TimeStep
29,11,Electricity:Facility [J] !RunPeriod [Value,Min,Month,Day,Hour,Minute,Max,Month,Day,Hour,Minute]
41,11,Electricity:Building [J] !RunPeriod [Value,Min,Month,Day,Hour,Minute,Max,Month,Day,Hour,Minute]
77,11,InteriorLights:Electricity [J] !RunPeriod [Value,Min,Month,Day,Hour,Minute,Max,Month,Day,Hour,Minute]
1210,11,Electricity:HVAC [J] !RunPeriod [Value,Min,Month,Day,Hour,Minute,Max,Month,Day,Hour,Minute]
1273,11,Electricity:Plant [J] !RunPeriod [Value,Min,Month,Day,Hour,Minute,Max,Month,Day,Hour,Minute]
End of Data Dictionary
1,RUN PERIOD 2,  36.60, 117.05,   8.00, 215.00
2,1, 6, 1, 0, 1, 0.00,15.00,Wednesday
24,4661883.950440934
36,427500.0
72,337500.0
1205,592840.2253004119
1268,3641543.725140522
2,1, 6, 1, 0, 1,15.00,30.00,Wednesday
24,4660383.999575077
36,427500.0
72,337500.0
1205,592840.2253004119
1268,3640043.7742746645
2,1, 6, 1, 0, 1,30.00,45.00,Wednesday
24,4658681.355488433
36,427500.0
72,337500.0
1205,592840.2253004119
1268,3638341.1301880204
2,1, 6, 1, 0, 1,45.00,60.00,Wednesday
24,4656835.629523086
36,427500.0
72,337500.0
1205,592840.2253004119
1268,3636495.4042226737
2,1, 6, 1, 0, 2, 0.00,15.00,Wednesday
24,4656779.232387009
36,427500.0
72,337500.0
1205,592840.2253004119
1268,3636439.007086597
2,1, 6, 1, 0, 2,15.00,30.00,Wednesday
24,4656719.258883436
36,427500.0
72,337500.0
1205,592840.2253004119
1268,3636379.033583024
2,1, 6, 1, 0, 2,30.00,45.00,Wednesday
24,4656655.776928991
36,427500.0
72,337500.0
1205,592840.2253004119
1268,3636315.551628579
2,1, 6, 1, 0, 2,45.00,60.00,Wednesday
24,4656588.8275676705
36,427500.0
72,337500.0
1205,592840.2253004119
1268,3636248.602267258
2,1, 6, 1, 0, 3, 0.00,15.00,Wednesday
24,4656337.966114882
36,427500.0
72,337500.0
1205,592840.2253004119
1268,3635997.74081447
2,1, 6, 1, 0, 3,15.00,30.00,Wednesday
24,4656086.894459372
36,427500.0
72,337500.0
1205,592840.2253004119
1268,3635746.6691589598
2,1, 6, 1, 0, 3,30.00,45.00,Wednesday
24,4655835.7161594825
36,427500.0
72,337500.0
1205,592840.2253004119
1268,3635495.4908590703
2,1, 6, 1, 0, 3,45.00,60.00,Wednesday
24,4655584.481778615
36,427500.0
72,337500.0
1205,592840.2253004119
1268,3635244.2564782025
2,1, 6, 1, 0, 4, 0.00,15.00,Wednesday
24,4655316.583482523
36,427500.0
72,337500.0
1205,592840.2253004119
1268,3634976.3581821113
2,1, 6, 1, 0, 4,15.00,30.00,Wednesday
24,4655046.563134102
36,427500.0
72,337500.0
1205,592840.2253004119
1268,3634706.33783369
2,1, 6, 1, 0, 4,30.00,45.00,Wednesday
24,4654774.461661026
36,427500.0
72,337500.0
1205,592840.2253004119
1268,3634434.2363606133
2,1, 6, 1, 0, 4,45.00,60.00,Wednesday
24,4654500.35447561
36,427500.0
72,337500.0
1205,592840.2253004119
1268,3634160.129175198
2,1, 6, 1, 0, 5, 0.00,15.00,Wednesday
24,4654356.596382825
36,427500.0
72,337500.0
1205,592840.2253004119
1268,3634016.3710824125
2,1, 6, 1, 0, 5,15.00,30.00,Wednesday
24,4654183.581400552
36,427500.0
72,337500.0
1205,592840.2253004119
1268,3633843.3561001397
2,1, 6, 1, 0, 5,30.00,45.00,Wednesday
24,4653980.951485281
36,427500.0
72,337500.0
1205,592840.2253004119
1268,3633640.7261848687
2,1, 6, 1, 0, 5,45.00,60.00,Wednesday
24,4653748.384529741
36,427500.0
72,337500.0
1205,592840.2253004119
1268,3633408.159229328
2,1, 6, 1, 0, 6, 0.00,15.00,Wednesday
24,4653785.452504678
36,427500.0
72,337500.0
1205,592840.2253004119
1268,3633445.227204265
2,1, 6, 1, 0, 6,15.00,30.00,Wednesday
24,4653760.759711962
36,427500.0
72,337500.0
1205,592840.2253004119
1268,3633420.53441155
2,1, 6, 1, 0, 6,30.00,45.00,Wednesday
24,4653671.662452876
36,427500.0
72,337500.0
1205,592840.2253004119
1268,3633331.437152463
2,1, 6, 1, 0, 6,45.00,60.00,Wednesday
24,4653515.743082496
36,427500.0
72,337500.0
1205,592840.2253004119
1268,3633175.5177820837
2,1, 6, 1, 0, 7, 0.00,15.00,Wednesday
24,4653587.062590277
36,427500.0
72,337500.0
1205,592840.2253004119
1268,3633246.8372898647
2,1, 6, 1, 0, 7,15.00,30.00,Wednesday
24,4653627.049362326
36,427500.0
72,337500.0
1205,592840.2253004119
1268,3633286.824061914
2,1, 6, 1, 0, 7,30.00,45.00,Wednesday
24,4653636.604782116
36,427500.0
72,337500.0
1205,592840.2253004119
1268,3633296.3794817035
2,1, 6, 1, 0, 7,45.00,60.00,Wednesday
24,4653616.564814704
36,427500.0
72,337500.0
1205,592840.2253004119
1268,3633276.339514291
2,1, 6, 1, 0, 8, 0.00,15.00,Wednesday
24,19445641.82112291
36,427500.0
72,337500.0
1205,1146943.214318549
1268,17871198.60680436
2,1, 6, 1, 0, 8,15.00,30.00,Wednesday
24,15291583.03886654
36,427500.0
72,337500.0
1205,935060.4195971584
1268,13929022.619269382
2,1, 6, 1, 0, 8,30.00,45.00,Wednesday
24,10407874.914081296
36,427500.0
72,337500.0
1205,657366.7840813401
1268,9323008.129999956
2,1, 6, 1, 0, 8,45.00,60.00,Wednesday
24,10133254.469058275
36,427500.0
72,337500.0
1205,657366.7840813401
1268,9048387.684976935
2,1, 6, 1, 0, 9, 0.00,15.00,Wednesday
24,14038832.536537282
36,7875000.0
72,6075000.0
1205,625529.795305365
1268,5538302.7412319165
2,1, 6, 1, 0, 9,15.00,30.00,Wednesday
24,12118744.457597584
36,7875000.0
72,6075000.0
1205,609179.1950722924
1268,3634565.262525291
2,1, 6, 1, 0, 9,30.00,45.00,Wednesday
24,12132207.221103596
36,7875000.0
72,6075000.0
1205,622402.617067694
1268,3634804.6040359
2,1, 6, 1, 0, 9,45.00,60.00,Wednesday
24,12138050.101582708
36,7875000.0
72,6075000.0
1205,628113.081044893
1268,3634937.020537816
2,1, 6, 1, 0,10, 0.00,15.00,Wednesday
24,14815303.553628908
36,10462500.0
72,6412500.0
1205,682861.3006449472
1268,3669942.252983961
2,1, 6, 1, 0,10,15.00,30.00,Wednesday
24,14967102.59625234
36,10462500.0
72,6412500.0
1205,690097.8986102912
1268,3814504.697642051
2,1, 6, 1, 0,10,30.00,45.00,Wednesday
24,15070604.393642876
36,10462500.0
72,6412500.0
1205,695242.033322747
1268,3912862.36032013
2,1, 6, 1, 0,10,45.00,60.00,Wednesday
24,15166036.579248378
36,10462500.0
72,6412500.0
1205,699609.3388344593
1268,4003927.2404139186
2,1, 6, 1, 0,11, 0.00,15.00,Wednesday
24,15603687.826150082
36,10800000.0
72,6750000.0
1205,704743.0254230527
1268,4098944.800727029
2,1, 6, 1, 0,11,15.00,30.00,Wednesday
24,15693803.937612968
36,10800000.0
72,6750000.0
1205,708811.6410577152
1268,4184992.296555253
2,1, 6, 1, 0,11,30.00,45.00,Wednesday
24,15774310.99981156
36,10800000.0
72,6750000.0
1205,711943.0714181047
1268,4262367.928393456
2,1, 6, 1, 0,11,45.00,60.00,Wednesday
24,15848883.780474415
36,10800000.0
72,6750000.0
1205,714661.1258908319
1268,4334222.654583584
2,1, 6, 1, 0,12, 0.00,15.00,Wednesday
24,15401550.620940823
36,10462500.0
72,6412500.0
1205,699165.521297422
1268,4239885.099643403
2,1, 6, 1, 0,12,15.00,30.00,Wednesday
24,15447860.307690322
36,10462500.0
72,6412500.0
1205,699556.4146152323
1268,4285803.893075091
2,1, 6, 1, 0,12,30.00,45.00,Wednesday
24,15510960.635533797
36,10462500.0
72,6412500.0
1205,700810.4015699087
1268,4347650.233963891
2,1, 6, 1, 0,12,45.00,60.00,Wednesday
24,15574204.66331059
36,10462500.0
72,6412500.0
1205,702072.2818180185
1268,4409632.381492571
2,1, 6, 1, 0,13, 0.00,15.00,Wednesday
24,14200546.660723597
36,9450000.0
72,5400000.0
1205,670419.82770969
1268,4080126.8330139085
2,1, 6, 1, 0,13,15.00,30.00,Wednesday
24,14173606.848226804
36,9450000.0
72,5400000.0
1205,668256.4243541488
1268,4055350.423872656
2,1, 6, 1, 0,13,30.00,45.00,Wednesday
24,14189332.546009373
36,9450000.0
72,5400000.0
1205,668055.145813451
1268,4071277.4001959236
2,1, 6, 1, 0,13,45.00,60.00,Wednesday
24,14218623.893140102
36,9450000.0
72,5400000.0
1205,668787.7166569517
1268,4099836.176483149
2,1, 6, 1, 0,14, 0.00,15.00,Wednesday
24,15315674.76982879
36,10125000.0
72,6075000.0
1205,700899.2596963258
1268,4489775.510132467
2,1, 6, 1, 0,14,15.00,30.00,Wednesday
24,15410231.414995681
36,10125000.0
72,6075000.0
1205,706318.5760223264
1268,4578912.838973357
2,1, 6, 1, 0,14,30.00,45.00,Wednesday
24,15464364.746593136
36,10125000.0
72,6075000.0
1205,709419.3943203425
1268,4629945.352272794
2,1, 6, 1, 0,14,45.00,60.00,Wednesday
24,15514836.854896419
36,10125000.0
72,6075000.0
1205,712247.2252646299
1268,4677589.629631791
2,1, 6, 1, 0,15, 0.00,15.00,Wednesday
24,15871813.064019088
36,10350000.0
72,6750000.0
1205,722491.7499802383
1268,4799321.314038851
2,1, 6, 1, 0,15,15.00,30.00,Wednesday
24,15952219.295457417
36,10350000.0
72,6750000.0
1205,727629.6219615072
1268,4874589.673495909
2,1, 6, 1, 0,15,30.00,45.00,Wednesday
24,16017850.319354938
36,10350000.0
72,6750000.0
1205,731695.0403625239
1268,4936155.2789924145
2,1, 6, 1, 0,15,45.00,60.00,Wednesday
24,16078471.902189963
36,10350000.0
72,6750000.0
1205,735405.203874309
1268,4993066.698315655
2,1, 6, 1, 0,16, 0.00,15.00,Wednesday
24,15487128.086362956
36,9900000.0
72,6750000.0
1205,722740.7288893425
1268,4864387.357473614
2,1, 6, 1, 0,16,15.00,30.00,Wednesday
24,15472239.175525445
36,9900000.0
72,6750000.0
1205,723658.5892975094
1268,4848580.586227936
2,1, 6, 1, 0,16,30.00,45.00,Wednesday
24,15462307.140978994
36,9900000.0
72,6750000.0
1205,724434.1588514398
1268,4837872.982127554
2,1, 6, 1, 0,16,45.00,60.00,Wednesday
24,15445144.664704897
36,9900000.0
72,6750000.0
1205,724585.4520946043
1268,4820559.212610291
2,1, 6, 1, 0,17, 0.00,15.00,Wednesday
24,14228611.902554149
36,9000000.0
72,6750000.0
1205,698123.5262989807
1268,4530488.376255168
2,1, 6, 1, 0,17,15.00,30.00,Wednesday
24,14179210.48718999
36,9000000.0
72,6750000.0
1205,696528.9827351144
1268,4482681.504454876
2,1, 6, 1, 0,17,30.00,45.00,Wednesday
24,14124914.059248082
36,9000000.0
72,6750000.0
1205,693290.8726431403
1268,4431623.186604943
2,1, 6, 1, 0,17,45.00,60.00,Wednesday
24,14065561.661615621
36,9000000.0
72,6750000.0
1205,689773.1285388274
1268,4375788.533076796
2,1, 6, 1, 0,18, 0.00,15.00,Wednesday
24,13998843.997566251
36,9000000.0
72,6750000.0
1205,686026.8162517904
1268,4312817.181314462
2,1, 6, 1, 0,18,15.00,30.00,Wednesday
24,13926036.959354691
36,9000000.0
72,6750000.0
1205,681886.4890796705
1268,4244150.470275021
2,1, 6, 1, 0,18,30.00,45.00,Wednesday
24,13821922.512871036
36,9000000.0
72,6750000.0
1205,675439.7900256081
1268,4146482.72284543
2,1, 6, 1, 0,18,45.00,60.00,Wednesday
24,13717657.064807333
36,9000000.0
72,6750000.0
1205,669303.3663314898
1268,4048353.6984758438
2,1, 6, 1, 0,19, 0.00,15.00,Wednesday
24,9657112.435651843
36,5400000.0
72,4050000.0
1205,616248.6396902762
1268,3640863.795961566
2,1, 6, 1, 0,19,15.00,30.00,Wednesday
24,9650725.249227656
36,5400000.0
72,4050000.0
1205,610754.8416806383
1268,3639970.4075470176
2,1, 6, 1, 0,19,30.00,45.00,Wednesday
24,9648335.335192174
36,5400000.0
72,4050000.0
1205,608424.9580732742
1268,3639910.3771189013
2,1, 6, 1, 0,19,45.00,60.00,Wednesday
24,9646263.032770485
36,5400000.0
72,4050000.0
1205,606439.8480523778
1268,3639823.1847181073
2,1, 6, 1, 0,20, 0.00,15.00,Wednesday
24,8289635.693552636
36,4050000.0
72,2700000.0
1205,599925.9623478719
1268,3639709.731204764
2,1, 6, 1, 0,20,15.00,30.00,Wednesday
24,8286669.4125033915
36,4050000.0
72,2700000.0
1205,597098.3684771106
1268,3639571.0440262808
2,1, 6, 1, 0,20,30.00,45.00,Wednesday
24,8284695.551419802
36,4050000.0
72,2700000.0
1205,595287.3899682692
1268,3639408.161451532
2,1, 6, 1, 0,20,45.00,60.00,Wednesday
24,8283456.180245655
36,4050000.0
72,2700000.0
1205,594234.0752439215
1268,3639222.105001732
2,1, 6, 1, 0,21, 0.00,15.00,Wednesday
24,8283069.1500745015
36,4050000.0
72,2700000.0
1205,593873.6879386574
1268,3639195.462135844
2,1, 6, 1, 0,21,15.00,30.00,Wednesday
24,8282723.213571144
36,4050000.0
72,2700000.0
1205,593584.1386279631
1268,3639139.07494318
2,1, 6, 1, 0,21,30.00,45.00,Wednesday
24,8282410.7652394725
36,4050000.0
72,2700000.0
1205,593356.8870484959
1268,3639053.878190975
2,1, 6, 1, 0,21,45.00,60.00,Wednesday
24,8282034.464045357
36,4050000.0
72,2700000.0
1205,593093.5231281477
1268,3638940.940917208
2,1, 6, 1, 0,22, 0.00,15.00,Wednesday
24,4659581.502920331
36,427500.0
72,337500.0
1205,592840.2253004119
1268,3639241.277619919
2,1, 6, 1, 0,22,15.00,30.00,Wednesday
24,4659879.950136529
36,427500.0
72,337500.0
1205,592840.2253004119
1268,3639539.7248361167
2,1, 6, 1, 0,22,30.00,45.00,Wednesday
24,4660176.451256159
36,427500.0
72,337500.0
1205,592840.2253004119
1268,3639836.2259557466
2,1, 6, 1, 0,22,45.00,60.00,Wednesday
24,4660470.969974806
36,427500.0
72,337500.0
1205,592840.2253004119
1268,3640130.7446743934
2,1, 6, 1, 0,23, 0.00,15.00,Wednesday
24,4660687.972993988
36,427500.0
72,337500.0
1205,592840.2253004119
1268,3640347.747693575
2,1, 6, 1, 0,23,15.00,30.00,Wednesday
24,4660900.745566415
36,427500.0
72,337500.0
1205,592840.2253004119
1268,3640560.5202660025
2,1, 6, 1, 0,23,30.00,45.00,Wednesday
24,4661109.287731902
36,427500.0
72,337500.0
1205,592840.2253004119
1268,3640769.0624314896
2,1, 6, 1, 0,23,45.00,60.00,Wednesday
24,4661313.528318753
36,427500.0
72,337500.0
1205,592840.2253004119
1268,3640973.3030183404
2,1, 6, 1, 0,24, 0.00,15.00,Wednesday
24,4661765.121480793
36,427500.0
72,337500.0
1205,592840.2253004119
1268,3641424.89618038
2,1, 6, 1, 0,24,15.00,30.00,Wednesday
24,4662215.983651246
36,427500.0
72,337500.0
1205,592840.2253004119
1268,3641875.758350834
2,1, 6, 1, 0,24,30.00,45.00,Wednesday
24,4662666.062258321
36,427500.0
72,337500.0
1205,592840.2253004119
1268,3642325.8369579082
2,1, 6, 1, 0,24,45.00,60.00,Wednesday
24,4663115.224533446
36,427500.0
72,337500.0
1205,592840.2253004119
1268,3642774.9992330335
2,2, 6, 2, 0, 1, 0.00,15.00,Thursday
24,4663291.729379595
36,427500.0
72,337500.0
1205,592840.2253004119
1268,3642951.5040791826
2,2, 6, 2, 0, 1,15.00,30.00,Thursday
24,4663467.142818697
36,427500.0
72,337500.0
1205,592840.2253004119
1268,3643126.9175182846
2,2, 6, 2, 0, 1,30.00,45.00,Thursday
24,4663641.44224775
36,427500.0
72,337500.0
1205,592840.2253004119
1268,3643301.216947338
2,2, 6, 2, 0, 1,45.00,60.00,Thursday
24,4663814.644780418
36,427500.0
72,337500.0
1205,592840.2253004119
1268,3643474.4194800053
2,2, 6, 2, 0, 2, 0.00,15.00,Thursday
24,4664254.36539313
36,427500.0
72,337500.0
1205,592840.2253004119
1268,3643914.140092718
2,2, 6, 2, 0, 2,15.00,30.00,Thursday
24,4664697.216072976
36,427500.0
72,337500.0
1205,592840.2253004119
1268,3644356.990772563
2,2, 6, 2, 0, 2,30.00,45.00,Thursday
24,4665143.242331581
36,427500.0
72,337500.0
1205,592840.2253004119
1268,3644803.0170311686
2,2, 6, 2, 0, 2,45.00,60.00,Thursday
24,4665592.442990467
36,427500.0
72,337500.0
1205,592840.2253004119
1268,3645252.2176900543
2,2, 6, 2, 0, 3, 0.00,15.00,Thursday
24,4665763.860611271
36,427500.0
72,337500.0
1205,592840.2253004119
1268,3645423.635310859
2,2, 6, 2, 0, 3,15.00,30.00,Thursday
24,4665934.07387015
36,427500.0
72,337500.0
1205,592840.2253004119
1268,3645593.848569738
2,2, 6, 2, 0, 3,30.00,45.00,Thursday
24,4666103.099911999
36,427500.0
72,337500.0
1205,592840.2253004119
1268,3645762.8746115863
2,2, 6, 2, 0, 3,45.00,60.00,Thursday
24,4666270.890684249
36,427500.0
72,337500.0
1205,592840.2253004119
1268,3645930.6653838363
2,2, 6, 2, 0, 4, 0.00,15.00,Thursday
24,4666160.13437221
36,427500.0
72,337500.0
1205,592840.2253004119
1268,3645819.9090717975
2,2, 6, 2, 0, 4,15.00,30.00,Thursday
24,4666048.63829265
36,427500.0
72,337500.0
1205,592840.2253004119
1268,3645708.412992237
2,2, 6, 2, 0, 4,30.00,45.00,Thursday
24,4665936.414768321
36,427500.0
72,337500.0
1205,592840.2253004119
1268,3645596.189467909
2,2, 6, 2, 0, 4,45.00,60.00,Thursday
24,4665823.525018746
36,427500.0
72,337500.0
1205,592840.2253004119
1268,3645483.299718334
2,2, 6, 2, 0, 5, 0.00,15.00,Thursday
24,4665986.442479094
36,427500.0
72,337500.0
1205,592840.2253004119
1268,3645646.217178681
2,2, 6, 2, 0, 5,15.00,30.00,Thursday
24,4666148.079300258
36,427500.0
72,337500.0
1205,592840.2253004119
1268,3645807.8539998457
2,2, 6, 2, 0, 5,30.00,45.00,Thursday
24,4666308.459016458
36,427500.0
72,337500.0
1205,592840.2253004119
1268,3645968.233716046
2,2, 6, 2, 0, 5,45.00,60.00,Thursday
24,4666467.557051687
36,427500.0
72,337500.0
1205,592840.2253004119
1268,3646127.3317512744
2,2, 6, 2, 0, 6, 0.00,15.00,Thursday
24,4666345.355743387
36,427500.0
72,337500.0
1205,592840.2253004119
1268,3646005.130442974
2,2, 6, 2, 0, 6,15.00,30.00,Thursday
24,4666222.53283135
36,427500.0
72,337500.0
1205,592840.2253004119
1268,3645882.307530938
2,2, 6, 2, 0, 6,30.00,45.00,Thursday
24,4666099.08666873
36,427500.0
72,337500.0
1205,592840.2253004119
1268,3645758.8613683176
2,2, 6, 2, 0, 6,45.00,60.00,Thursday
24,4665975.093637165
36,427500.0
72,337500.0
1205,592840.2253004119
1268,3645634.868336752
2,2, 6, 2, 0, 7, 0.00,15.00,Thursday
24,4666426.836206183
36,427500.0
72,337500.0
1205,592840.2253004119
1268,3646086.61090577
2,2, 6, 2, 0, 7,15.00,30.00,Thursday
24,4666884.476578102
36,427500.0
72,337500.0
1205,592840.2253004119
1268,3646544.25127769
2,2, 6, 2, 0, 7,30.00,45.00,Thursday
24,4667348.100234559
36,427500.0
72,337500.0
1205,592840.2253004119
1268,3647007.8749341466
2,2, 6, 2, 0, 7,45.00,60.00,Thursday
24,4667817.749180331
36,427500.0
72,337500.0
1205,592840.2253004119
1268,3647477.5238799187
2,2, 6, 2, 0, 8, 0.00,15.00,Thursday
24,18637583.604694463
36,427500.0
72,337500.0
1205,1086791.5778033505
1268,17123292.026891116
2,2, 6, 2, 0, 8,15.00,30.00,Thursday
24,13672310.217794947
36,427500.0
72,337500.0
1205,784518.0688990278
1268,12460292.14889592
2,2, 6, 2, 0, 8,30.00,45.00,Thursday
24,10320603.989731446
36,427500.0
72,337500.0
1205,657366.7840813401
1268,9235737.205650106
2,2, 6, 2, 0, 8,45.00,60.00,Thursday
24,10453761.384351168
36,427500.0
72,337500.0
1205,657366.7840813401
1268,9368894.600269828
2,2, 6, 2, 0, 9, 0.00,15.00,Thursday
24,14626920.945490545
36,7875000.0
72,6075000.0
1205,627913.9387888098
1268,6124007.006701737
2,2, 6, 2, 0, 9,15.00,30.00,Thursday
24,12130160.515883878
36,7875000.0
72,6075000.0
1205,605967.2355419609
1268,3649193.2803419167
2,2, 6, 2, 0, 9,30.00,45.00,Thursday
24,12134138.03422827
36,7875000.0
72,6075000.0
1205,609446.637873244
1268,3649691.3963550273
2,2, 6, 2, 0, 9,45.00,60.00,Thursday
24,12137516.965311749
36,7875000.0
72,6075000.0
1205,612320.7039488233
1268,3650196.2613629266
2,2, 6, 2, 0,10, 0.00,15.00,Thursday
24,14806527.729068944
36,10462500.0
72,6412500.0
1205,658938.4551571133
1268,3685089.2739118324
2,2, 6, 2, 0,10,15.00,30.00,Thursday
24,14966155.229710307
36,10462500.0
72,6412500.0
1205,674428.8193282329
1268,3829226.410382073
2,2, 6, 2, 0,10,30.00,45.00,Thursday
24,15051708.893748248
36,10462500.0
72,6412500.0
1205,680985.3508350344
1268,3908223.5429132134
2,2, 6, 2, 0,10,45.00,60.00,Thursday
24,15119295.311166717
36,10462500.0
72,6412500.0
1205,685299.2225917755
1268,3971496.0885749436
2,2, 6, 2, 0,11, 0.00,15.00,Thursday
24,15523820.411372123
36,10800000.0
72,6750000.0
1205,690404.9832446596
1268,4033415.4281274616
2,2, 6, 2, 0,11,15.00,30.00,Thursday
24,15578317.82914879
36,10800000.0
72,6750000.0
1205,694518.9540210189
1268,4083798.875127773
2,2, 6, 2, 0,11,30.00,45.00,Thursday
24,15579138.29048488
36,10800000.0
72,6750000.0
1205,693626.8492523029
1268,4085511.4412325784
2,2, 6, 2, 0,11,45.00,60.00,Thursday
24,15563026.618591983
36,10800000.0
72,6750000.0
1205,691185.9154790186
1268,4071840.7031129654
2,2, 6, 2, 0,12, 0.00,15.00,Thursday
24,15044067.227725169
36,10462500.0
72,6412500.0
1205,673958.6714372064
1268,3907608.556287963
2,2, 6, 2, 0,12,15.00,30.00,Thursday
24,14851875.854432525
36,10462500.0
72,6412500.0
1205,658124.3254478795
1268,3731251.5289846454
2,2, 6, 2, 0,12,30.00,45.00,Thursday
24,14862316.754341435
36,10462500.0
72,6412500.0
1205,657359.8101245526
1268,3742456.9442168814
2,2, 6, 2, 0,12,45.00,60.00,Thursday
24,14885649.323684381
36,10462500.0
72,6412500.0
1205,657609.6685503322
1268,3765539.655134051
2,2, 6, 2, 0,13, 0.00,15.00,Thursday
24,13737293.277601698
36,9450000.0
72,5400000.0
1205,634270.9655053616
1268,3653022.312096337
2,2, 6, 2, 0,13,15.00,30.00,Thursday
24,13734985.670234451
36,9450000.0
72,5400000.0
1205,632100.796321382
1268,3652884.873913068
2,2, 6, 2, 0,13,30.00,45.00,Thursday
24,13744863.394668207
36,9450000.0
72,5400000.0
1205,641865.2836626624
1268,3652998.1110055447
2,2, 6, 2, 0,13,45.00,60.00,Thursday
24,13745555.530876981
36,9450000.0
72,5400000.0
1205,642459.068121434
1268,3653096.462755549
2,2, 6, 2, 0,14, 0.00,15.00,Thursday
24,14761324.7317024
36,10125000.0
72,6075000.0
1205,666784.1976268246
1268,3969540.5340755745
2,2, 6, 2, 0,14,15.00,30.00,Thursday
24,14848926.400679922
36,10125000.0
72,6075000.0
1205,671388.6788825118
1268,4052537.7217974104
2,2, 6, 2, 0,14,30.00,45.00,Thursday
24,14884358.862652186
36,10125000.0
72,6075000.0
1205,671773.4979130145
1268,4087585.3647391736
2,2, 6, 2, 0,14,45.00,60.00,Thursday
24,14905721.744175624
36,10125000.0
72,6075000.0
1205,671010.7994091294
1268,4109710.944766496
2,2, 6, 2, 0,15, 0.00,15.00,Thursday
24,15183757.440097965
36,10350000.0
72,6750000.0
1205,674428.2142509168
1268,4159329.2258470473
2,2, 6, 2, 0,15,15.00,30.00,Thursday
24,14955135.350044655
36,10350000.0
72,6750000.0
1205,658318.4494229072
1268,3946816.9006217476
2,2, 6, 2, 0,15,30.00,45.00,Thursday
24,14950533.111569522
36,10350000.0
72,6750000.0
1205,657895.2668646788
1268,3942637.844704844
2,2, 6, 2, 0,15,45.00,60.00,Thursday
24,14976059.659358695
36,10350000.0
72,6750000.0
1205,659380.7750800529
1268,3966678.8842786425
2,2, 6, 2, 0,16, 0.00,15.00,Thursday
24,14416069.811748391
36,9900000.0
72,6750000.0
1205,652422.5162215263
1268,3863647.2955268663
2,2, 6, 2, 0,16,15.00,30.00,Thursday
24,14435399.046947762
36,9900000.0
72,6750000.0
1205,653593.3956333634
1268,3881805.651314401
2,2, 6, 2, 0,16,30.00,45.00,Thursday
24,14685772.063713046
36,9900000.0
72,6750000.0
1205,670176.7678028109
1268,4115595.2959102364
2,2, 6, 2, 0,16,45.00,60.00,Thursday
24,14694491.550825005
36,9900000.0
72,6750000.0
1205,670979.0107956331
1268,4123512.540029373
2,2, 6, 2, 0,17, 0.00,15.00,Thursday
24,13500187.891721327
36,9000000.0
72,6750000.0
1205,652456.4786096516
1268,3847731.4131116746
2,2, 6, 2, 0,17,15.00,30.00,Thursday
24,13468822.772961173
36,9000000.0
72,6750000.0
1205,651510.0394033756
1268,3817312.7335577994
2,2, 6, 2, 0,17,30.00,45.00,Thursday
24,13411199.795133635
36,9000000.0
72,6750000.0
1205,648861.937345678
1268,3762337.8577879574
2,2, 6, 2, 0,17,45.00,60.00,Thursday
24,13318872.015325472
36,9000000.0
72,6750000.0
1205,644250.0286090286
1268,3674621.9867164423
2,2, 6, 2, 0,18, 0.00,15.00,Thursday
24,13293307.291214176
36,9000000.0
72,6750000.0
1205,639473.4566787311
1268,3653833.834535443
2,2, 6, 2, 0,18,15.00,30.00,Thursday
24,13278184.34923354
36,9000000.0
72,6750000.0
1205,624404.4538080852
1268,3653779.895425456
2,2, 6, 2, 0,18,30.00,45.00,Thursday
24,13274527.823428081
36,9000000.0
72,6750000.0
1205,620754.1709105569
1268,3653773.652517526
2,2, 6, 2, 0,18,45.00,60.00,Thursday
24,13272219.288556488
36,9000000.0
72,6750000.0
1205,618452.9524225896
1268,3653766.3361338987
2,2, 6, 2, 0,19, 0.00,15.00,Thursday
24,9651510.170830606
36,5400000.0
72,4050000.0
1205,597988.4669596611
1268,3653521.703870945
2,2, 6, 2, 0,19,15.00,30.00,Thursday
24,9649285.092032617
36,5400000.0
72,4050000.0
1205,596008.1980244832
1268,3653276.8940081336
2,2, 6, 2, 0,19,30.00,45.00,Thursday
24,9649149.331233276
36,5400000.0
72,4050000.0
1205,596117.408920497
1268,3653031.92231278
2,2, 6, 2, 0,19,45.00,60.00,Thursday
24,9649180.190396588
36,5400000.0
72,4050000.0
1205,596393.3368296896
1268,3652786.8535669004
2,2, 6, 2, 0,20, 0.00,15.00,Thursday
24,8295370.178661881
36,4050000.0
72,2700000.0
1205,593058.4180482681
1268,3652311.760613612
2,2, 6, 2, 0,20,15.00,30.00,Thursday
24,8294683.051750115
36,4050000.0
72,2700000.0
1205,592840.2253004119
1268,3651842.826449703
2,2, 6, 2, 0,20,30.00,45.00,Thursday
24,8294220.0933862245
36,4050000.0
72,2700000.0
1205,592840.2253004119
1268,3651379.868085813
2,2, 6, 2, 0,20,45.00,60.00,Thursday
24,8293762.978250567
36,4050000.0
72,2700000.0
1205,592840.2253004119
1268,3650922.752950155
2,2, 6, 2, 0,21, 0.00,15.00,Thursday
24,8293527.3773688655
36,4050000.0
72,2700000.0
1205,592840.2253004119
1268,3650687.1520684534
2,2, 6, 2, 0,21,15.00,30.00,Thursday
24,8768498.612828821
36,4050000.0
72,2700000.0
1205,592840.2253004119
1268,4125658.3875284083
2,2, 6, 2, 0,21,30.00,45.00,Thursday
24,8904927.732390188
36,4050000.0
72,2700000.0
1205,592840.2253004119
1268,4262087.507089776
2,2, 6, 2, 0,21,45.00,60.00,Thursday
24,8793297.716396026
36,4050000.0
72,2700000.0
1205,592840.2253004119
1268,4150457.4910956146
2,2, 6, 2, 0,22, 0.00,15.00,Thursday
24,4670289.669168324
36,427500.0
72,337500.0
1205,592840.2253004119
1268,3649949.443867912
2,2, 6, 2, 0,22,15.00,30.00,Thursday
24,4670255.570045337
36,427500.0
72,337500.0
1205,592840.2253004119
1268,3649915.3447449245
2,2, 6, 2, 0,22,30.00,45.00,Thursday
24,4670217.836770499
36,427500.0
72,337500.0
1205,592840.2253004119
1268,3649877.611470087
2,2, 6, 2, 0,22,45.00,60.00,Thursday
24,4670176.626747807
36,427500.0
72,337500.0
1205,592840.2253004119
1268,3649836.4014473944
2,2, 6, 2, 0,23, 0.00,15.00,Thursday
24,4669930.106775241
36,427500.0
72,337500.0
1205,592840.2253004119
1268,3649589.8814748283
2,2, 6, 2, 0,23,15.00,30.00,Thursday
24,4669683.798535712
36,427500.0
72,337500.0
1205,592840.2253004119
1268,3649343.5732352994
2,2, 6, 2, 0,23,30.00,45.00,Thursday
24,4669437.793556886
36,427500.0
72,337500.0
1205,592840.2253004119
1268,3649097.5682564736
2,2, 6, 2, 0,23,45.00,60.00,Thursday
24,4669192.0278073875
36,427500.0
72,337500.0
1205,592840.2253004119
1268,3648851.8025069754
2,2, 6, 2, 0,24, 0.00,15.00,Thursday
24,4669139.386498403
36,427500.0
72,337500.0
1205,592840.2253004119
1268,3648799.16119799
2,2, 6, 2, 0,24,15.00,30.00,Thursday
24,4669083.420277647
36,427500.0
72,337500.0
1205,592840.2253004119
1268,3648743.1949772346
2,2, 6, 2, 0,24,30.00,45.00,Thursday
24,4669024.256013198
36,427500.0
72,337500.0
1205,592840.2253004119
1268,3648684.0307127857
2,2, 6, 2, 0,24,45.00,60.00,Thursday
24,4668961.918550319
36,427500.0
72,337500.0
1205,592840.2253004119
1268,3648621.693249907
2,3, 6, 3, 0, 1, 0.00,15.00,Friday
24,4668519.014358578
36,427500.0
72,337500.0
1205,592840.2253004119
1268,3648178.7890581656
2,3, 6, 3, 0, 1,15.00,30.00,Friday
24,4668081.674068713
36,427500.0
72,337500.0
1205,592840.2253004119
1268,3647741.4487683005
2,3, 6, 3, 0, 1,30.00,45.00,Friday
24,4667649.821957452
36,427500.0
72,337500.0
1205,592840.2253004119
1268,3647309.59665704
2,3, 6, 3, 0, 1,45.00,60.00,Friday
24,4667223.351861946
36,427500.0
72,337500.0
1205,592840.2253004119
1268,3646883.1265615337
2,3, 6, 3, 0, 2, 0.00,15.00,Friday
24,4666802.200964579
36,427500.0
72,337500.0
1205,592840.2253004119
1268,3646461.9756641667
2,3, 6, 3, 0, 2,15.00,30.00,Friday
24,4666386.207110211
36,427500.0
72,337500.0
1205,592840.2253004119
1268,3646045.981809799
2,3, 6, 3, 0, 2,30.00,45.00,Friday
24,4665975.329674123
36,427500.0
72,337500.0
1205,592840.2253004119
1268,3645635.1043737107
2,3, 6, 3, 0, 2,45.00,60.00,Friday
24,4665569.48343752
36,427500.0
72,337500.0
1205,592840.2253004119
1268,3645229.258137108
2,3, 6, 3, 0, 3, 0.00,15.00,Friday
24,4665168.531521385
36,427500.0
72,337500.0
1205,592840.2253004119
1268,3644828.306220972
2,3, 6, 3, 0, 3,15.00,30.00,Friday
24,4664772.453980437
36,427500.0
72,337500.0
1205,592840.2253004119
1268,3644432.2286800244
2,3, 6, 3, 0, 3,30.00,45.00,Friday
24,4664381.089260755
36,427500.0
72,337500.0
1205,592840.2253004119
1268,3644040.8639603425
2,3, 6, 3, 0, 3,45.00,60.00,Friday
24,4663994.438102425
36,427500.0
72,337500.0
1205,592840.2253004119
1268,3643654.2128020125
2,3, 6, 3, 0, 4, 0.00,15.00,Friday
24,4664081.044249251
36,427500.0
72,337500.0
1205,592840.2253004119
1268,3643740.818948838
2,3, 6, 3, 0, 4,15.00,30.00,Friday
24,4664163.274865542
36,427500.0
72,337500.0
1205,592840.2253004119
1268,3643823.049565129
2,3, 6, 3, 0, 4,30.00,45.00,Friday
24,4664241.134066064
36,427500.0
72,337500.0
1205,592840.2253004119
1268,3643900.9087656518
2,3, 6, 3, 0, 4,45.00,60.00,Friday
24,4664314.639730427
36,427500.0
72,337500.0
1205,592840.2253004119
1268,3643974.414430015
2,3, 6, 3, 0, 5, 0.00,15.00,Friday
24,4664537.793898453
36,427500.0
72,337500.0
1205,592840.2253004119
1268,3644197.5685980404
2,3, 6, 3, 0, 5,15.00,30.00,Friday
24,4664755.756426714
36,427500.0
72,337500.0
1205,592840.2253004119
1268,3644415.531126302
2,3, 6, 3, 0, 5,30.00,45.00,Friday
24,4664968.503393996
36,427500.0
72,337500.0
1205,592840.2253004119
1268,3644628.278093583
2,3, 6, 3, 0, 5,45.00,60.00,Friday
24,4665176.047657229
36,427500.0
72,337500.0
1205,592840.2253004119
1268,3644835.822356817
2,3, 6, 3, 0, 6, 0.00,15.00,Friday
24,4665225.069936676
36,427500.0
72,337500.0
1205,592840.2253004119
1268,3644884.844636264
2,3, 6, 3, 0, 6,15.00,30.00,Friday
24,4665269.805840191
36,427500.0
72,337500.0
1205,592840.2253004119
1268,3644929.580539779
2,3, 6, 3, 0, 6,30.00,45.00,Friday
24,4665310.282112575
36,427500.0
72,337500.0
1205,592840.2253004119
1268,3644970.0568121625
2,3, 6, 3, 0, 6,45.00,60.00,Friday
24,4665346.514730917
36,427500.0
72,337500.0
1205,592840.2253004119
1268,3645006.2894305047
2,3, 6, 3, 0, 7, 0.00,15.00,Friday
24,4666098.95084105
36,427500.0
72,337500.0
1205,592840.2253004119
1268,3645758.725540637
2,3, 6, 3, 0, 7,15.00,30.00,Friday
24,4666863.261374843
36,427500.0
72,337500.0
1205,592840.2253004119
1268,3646523.036074431
2,3, 6, 3, 0, 7,30.00,45.00,Friday
24,4667639.614915615
36,427500.0
72,337500.0
1205,592840.2253004119
1268,3647299.3896152023
2,3, 6, 3, 0, 7,45.00,60.00,Friday
24,4668428.1798439855
36,427500.0
72,337500.0
1205,592840.2253004119
1268,3648087.9545435733