Program Version,EnergyPlus, Version 23.2.0-7636e6b3e9, YMD=2025.04.15 22:15
1,5,Environment Title[],Latitude[deg],Longitude[deg],Time Zone[],Elevation[m]
2,8,Day of Simulation[],Month[],Day of Month[],DST Indicator[1=yes 0=no],Hour[],StartMinute[],EndMinute[],DayType
3,5,Cumulative Day of Simulation[],Month[],Day of Month[],DST Indicator[1=yes 0=no],DayType  ! When Daily Report Variables Requested
4,2,Cumulative Days of Simulation[],Month[]  ! When Monthly Report Variables Requested
5,1,Cumulative Days of Simulation[] ! When Run Period Report Variables Requested
6,1,Calendar Year of Simulation[] ! When Annual Report Variables Requested
7,1,Environment,Site Outdoor Air Drybulb Temperature [C] !TimeStep
18,1,SPACE1-1,Space People Occupant Count [] !TimeStep
19,1,SPACE2-1,Space People Occupant Count [] !TimeStep
20,1,SPACE3-1,Space People Occupant Count [] !TimeStep
21,1,SPACE4-1,Space People Occupant Count [] !TimeStep
22,1,SPACE5-1,Space People Occupant Count [] !TimeStep
465,1,PLENUM-1,Zone Air Temperature [C] !TimeStep
600,1,SPACE1-1,Zone Air Temperature [C] !TimeStep
666,1,SPACE2-1,Zone Air Temperature [C] !TimeStep
732,1,SPACE3-1,Zone Air Temperature [C] !TimeStep
798,1,SPACE4-1,Zone Air Temperature [C] !TimeStep
864,1,SPACE5-1,Zone Air Temperature [C] !TimeStep
1077,1,SPACE1-1 PEOPLE 1,Zone Thermal Comfort Fanger Model PPD [%] !TimeStep
1078,1,SPACE2-1 PEOPLE 1,Zone Thermal Comfort Fanger Model PPD [%] !TimeStep
1079,1,SPACE3-1 PEOPLE 1,Zone Thermal Comfort Fanger Model PPD [%] !TimeStep
1080,1,SPACE4-1 PEOPLE 1,Zone Thermal Comfort Fanger Model PPD [%] !TimeStep
1081,1,SPACE5-1 PEOPLE 1,Zone Thermal Comfort Fanger Model PPD [%] !TimeStep
End of Data Dictionary
1,RUN PERIOD 2,  36.60, 117.05,   8.00, 215.00
2,1, 6, 1, 0, 1, 0.00,15.00,Wednesday
7,22.5
18,0.0
19,0.0
20,0.0
21,0.0
22,0.0
1077,33.871031875205816
1078,34.29060240862658
1079,34.067189184669814
1080,34.7425687653773
1081,32.322921802272475
465,24.575500434865692
600,22.333081558911854
666,22.297993843198437
732,22.325584049004533
798,22.25484368482536
864,22.423594339715645
2,1, 6, 1, 0, 1,15.00,30.00,Wednesday
7,21.200000000000003
18,0.0
19,0.0
20,0.0
21,0.0
22,0.0
1077,35.286068552053734
1078,35.64383704896686
1079,35.48613109343408
1080,36.10909357507381
1081,33.21071033821815
465,24.390672252589486
600,22.24142808455881
666,22.20931099460352
732,22.233927932650275
798,22.166122845593602
864,22.359925638373397
2,1, 6, 1, 0, 1,30.00,45.00,Wednesday
7,19.900000000000002
18,0.0
19,0.0
20,0.0
21,0.0
22,0.0
1077,36.82975107702306
1078,37.13884826494818
1079,37.07556824681039
1080,37.6022977878465
1081,34.127049755312655
465,24.214594962450462
600,22.138650747963958
666,22.108897057082878
732,22.127262016237392
798,22.066186374871087
864,22.29361505113502
2,1, 6, 1, 0, 1,45.00,60.00,Wednesday
7,18.6
18,0.0
19,0.0
20,0.0
21,0.0
22,0.0
1077,38.459683805085625
1078,38.720298713276485
1079,38.769246595723736
1080,39.18618197995446
1081,35.05196599489689
465,24.04457172862367
600,22.03080837214768
666,22.003568129216
732,22.014175713839375
798,21.9611391009528
864,22.22756376128832
2,1, 6, 1, 0, 2, 0.00,15.00,Wednesday
7,18.475
18,0.0
19,0.0
20,0.0
21,0.0
22,0.0
1077,39.61227439661083
1078,39.87992954080727
1079,39.97056377977984
1080,40.345981024819274
1081,35.87154896470828
465,23.87889172528153
600,21.945715979120077
666,21.91965985356703
732,21.92550952457446
798,21.877263676130983
864,22.168749714330374
2,1, 6, 1, 0, 2,15.00,30.00,Wednesday
7,18.35
18,0.0
19,0.0
20,0.0
21,0.0
22,0.0
1077,40.55010888450043
1078,40.83403071649246
1079,40.93333326655055
1080,41.30096678112142
1081,36.60819595401819
465,23.71763726574138
600,21.8841286574033
666,21.857771850372604
732,21.86244933790037
798,21.8152105618844
864,22.118713257930693
2,1, 6, 1, 0, 2,30.00,45.00,Wednesday
7,18.225
18,0.0
19,0.0
20,0.0
21,0.0
22,0.0
1077,41.37125858810899
1078,41.680900764647845
1079,41.768729422706556
1080,42.14926878144935
1081,37.277382154005096
465,23.561230028100752
600,21.833358863698805
666,21.805746271402317
732,21.811193266466784
798,21.762927656809683
864,22.074962111242648
2,1, 6, 1, 0, 2,45.00,60.00,Wednesday
7,18.1
18,0.0
19,0.0
20,0.0
21,0.0
22,0.0
1077,42.156033070096065
1078,42.493745439913965
1079,42.56562692537922
1080,42.96327070077456
1081,37.90131147281921
465,23.409535065862812
600,21.7847342777718
666,21.755604358409638
732,21.762160757900165
798,21.712556718104402
864,22.03482799091556
2,1, 6, 1, 0, 3, 0.00,15.00,Wednesday
7,17.950000000000003
18,0.0
19,0.0
20,0.0
21,0.0
22,0.0
1077,42.98029802228614
1078,43.3646749214397
1079,43.429199729394895
1080,43.83018519155975
1081,38.51221064258753
465,23.261467777584688
600,21.73417980486922
666,21.70276915239473
732,21.709752850756768
798,21.659664461649385
864,21.99634273379447
2,1, 6, 1, 0, 3,15.00,30.00,Wednesday
7,17.8
18,0.0
19,0.0
20,0.0
21,0.0
22,0.0
1077,43.80783234449723
1078,44.24266944758916
1079,44.30856939597599
1080,44.704560223552456
1081,39.11189359674165
465,23.115998291494996
600,21.682842574442795
666,21.648542717392402
732,21.655320270084395
798,21.605624017684875
864,21.95878342016572
2,1, 6, 1, 0, 3,30.00,45.00,Wednesday
7,17.65
18,0.0
19,0.0
20,0.0
21,0.0
22,0.0
1077,44.62042727793387
1078,45.10779339224832
1079,45.178052644893725
1080,45.564239561065904
1081,39.70014994523148
465,22.973114541874782
600,21.632768831849283
666,21.595395249276955
732,21.601703017373946
798,21.552833041147398
864,21.92219728378514
2,1, 6, 1, 0, 3,45.00,60.00,Wednesday
7,17.5
18,0.0
19,0.0
20,0.0
21,0.0
22,0.0
1077,45.41023552858958
1078,45.9499629663779
1079,46.02514111673195
1080,46.40015357683026
1081,40.275218098082675
465,22.833590158573685
600,21.584716960814752
666,21.54430202856376
732,21.55012114249016
798,21.502164786484464
864,21.886775168084842
2,1, 6, 1, 0, 4, 0.00,15.00,Wednesday
7,17.575
18,0.0
19,0.0
20,0.0
21,0.0
22,0.0
1077,46.007529325527265
1078,46.57301165630171
1079,46.63101707860949
1080,47.02132946799101
1081,40.80510874471023
465,22.698739335507835
600,21.545961197824973
666,21.50399356858316
732,21.510266200778297
798,21.462116840347456
864,21.85364512990728
2,1, 6, 1, 0, 4,15.00,30.00,Wednesday
7,17.65
18,0.0
19,0.0
20,0.0
21,0.0
22,0.0
1077,46.50393386744795
1078,47.08283833028641
1079,47.113625663059075
1080,47.52988949126908
1081,41.30413709294135
465,22.568953264845923
600,21.51613443342559
666,21.473849071612435
732,21.481503974813645
798,21.431996575435655
864,21.823265548286248
2,1, 6, 1, 0, 4,30.00,45.00,Wednesday
7,17.725
18,0.0
19,0.0
20,0.0
21,0.0
22,0.0
1077,46.93530974448532
1078,47.52077322389087
1079,47.52036444525373
1080,47.96834828642087
1081,41.767254723509176
465,22.44612085547231
600,21.491365130199206
666,21.449193300443945
732,21.458653473205576
798,21.407214490512114
864,21.795493322555572
2,1, 6, 1, 0, 4,45.00,60.00,Wednesday
7,17.8
18,0.0
19,0.0
20,0.0
21,0.0
22,0.0
1077,47.32268904093794
1078,47.91142345875339
1079,47.880459332860525
1080,48.360391669952705
1081,42.197224179052874
465,22.325952529360702
600,21.4692580986286
666,21.42727883037049
732,21.438516159054785
798,21.385132853953266
864,21.770089217623678
2,1, 6, 1, 0, 5, 0.00,15.00,Wednesday
7,18.1
18,0.0
19,0.0
20,0.0
21,0.0
22,0.0
1077,47.64237018627825
1078,48.274340688584026
1079,48.21131261314423
1080,48.72044956480867
1081,42.597192733912
465,22.203978851224456
600,21.451223900295936
666,21.407656422274975
732,21.420663678610094
798,21.36557638281485
864,21.747368347837245
2,1, 6, 1, 0, 5,15.00,30.00,Wednesday
7,18.4
18,0.0
19,0.0
20,0.0
21,0.0
22,0.0
1077,47.91602147492284
1078,48.60372391118913
1079,48.50931158368943
1080,49.04574336492236
1081,42.97018974751778
465,22.083596523159695
600,21.43726267697075
666,21.39071794931846
732,21.405458089646153
798,21.34889560674787
864,21.727193325017282
2,1, 6, 1, 0, 5,30.00,45.00,Wednesday
7,18.7
18,0.0
19,0.0
20,0.0
21,0.0
22,0.0
1077,48.15484225680575
1078,48.90239980608624
1079,48.777660167007475
1080,49.340721997187394
1081,43.322024325211686
465,21.969098750698763
600,21.42637791559227
666,21.376648885102515
732,21.393019128636666
798,21.33512743404979
864,21.70920251897047
2,1, 6, 1, 0, 5,45.00,60.00,Wednesday
7,19.0
18,0.0
19,0.0
20,0.0
21,0.0
22,0.0
1077,47.991783282193815
1078,48.685595727718535
1079,48.43606040132964
1080,49.21868257361648
1081,43.32115273183813
465,21.86517302624913
600,21.430052651382823
666,21.38250039119968
732,21.40405590124245
798,21.337226057341375
864,21.7011812707933
2,1, 6, 1, 0, 6, 0.00,15.00,Wednesday
7,19.5
18,0.0
19,0.0
20,0.0
21,0.0
22,0.0
1077,47.89281452276455
1078,48.65049399917046
1079,48.37910691512516
1080,49.17528385157649
1081,43.460309931199355
465,21.774076288491923
600,21.444108064968468
666,21.396158103308682
732,21.420920987614345
798,21.349240447140087
864,21.700813584027554
2,1, 6, 1, 0, 6,15.00,30.00,Wednesday
7,20.0
18,0.0
19,0.0
20,0.0
21,0.0
22,0.0
1077,47.78626460324386
1078,48.63860053481597
1079,48.35971437652435
1080,49.13397273985849
1081,43.57642028028606
465,21.692651451749974
600,21.45944417744863
666,21.406862683963215
732,21.4320354635469
798,21.36163469790477
864,21.702184332630896
2,1, 6, 1, 0, 6,30.00,45.00,Wednesday
7,20.5
18,0.0
19,0.0
20,0.0
21,0.0
22,0.0
1077,46.426956061931975
1078,46.72780000505693
1079,46.111563734621406
1080,47.849429053103606
1081,42.49320773355916
465,21.634575879330665
600,21.51336555795453
666,21.478542367469572
732,21.512973895224384
798,21.4135964578318
864,21.733051676539695
2,1, 6, 1, 0, 6,45.00,60.00,Wednesday
7,21.0
18,0.0
19,0.0
20,0.0
21,0.0
22,0.0
1077,44.63000454163564
1078,44.26735772338582
1079,43.40421541532625
1080,46.07784873044206
1081,41.16661820456009
465,21.608585431852607
600,21.616933269680192
666,21.621031642694117
732,21.671291017013257
798,21.518006980862136
864,21.80614286042172
2,1, 6, 1, 0, 7, 0.00,15.00,Wednesday
7,20.65
18,0.0
19,0.0
20,0.0
21,0.0
22,0.0
1077,42.27789899875736
1078,40.8286314227553
1079,39.80344704439996
1080,43.657238323318566
1081,39.20981590343523
465,21.613252047226062
600,21.75610285962125
666,21.824793824571277
732,21.888909155367518
798,21.660900287221157
864,21.91580905742184
2,1, 6, 1, 0, 7,15.00,30.00,Wednesday
7,20.3
18,0.0
19,0.0
20,0.0
21,0.0
22,0.0
1077,39.823602050372365
1078,37.25752492660459
1079,36.24901751997445
1080,41.07660314843188
1081,37.171121577934734
465,21.64284459699833
600,21.910992882745628
666,22.056896100288444
732,22.125426646856813
798,21.82156338172389
864,22.04580697953516
2,1, 6, 1, 0, 7,30.00,45.00,Wednesday
7,19.950000000000003
18,0.0
19,0.0
20,0.0
21,0.0
22,0.0
1077,37.447050621445214
1078,33.69043126561429
1079,32.8442812040299
1080,38.55202477106002
1081,35.15110243084095
465,21.692678249031474
600,22.065130043803077
666,22.295939549874152
732,22.357920410502857
798,21.982393668612673
864,22.17984528065474
2,1, 6, 1, 0, 7,45.00,60.00,Wednesday
7,19.6
18,0.0
19,0.0
20,0.0
21,0.0
22,0.0
1077,34.71149202182542
1078,29.620068143355212
1079,29.063689747520726
1080,35.70131109871495
1081,32.79701181396058
465,21.771613905864086
600,22.229166023075635
666,22.565304686243394
732,22.609850904832644
798,22.151300737983302
864,22.32227689357579
2,1, 6, 1, 0, 8, 0.00,15.00,Wednesday
7,20.325000000000003
18,0.0
19,0.0
20,0.0
21,0.0
22,0.0
1077,21.567574575144576
1078,18.084846660370985
1079,17.85193788768359
1080,23.13072477784455
1081,28.319570078966066
465,22.255577759338543
600,23.799848860775526
666,24.008302434283465
732,24.042475308368964
798,23.600369467532694
864,22.766074836405792
2,1, 6, 1, 0, 8,15.00,30.00,Wednesday
7,21.05
18,0.0
19,0.0
20,0.0
21,0.0
22,0.0
1077,16.399701317734227
1078,13.947997288667864
1079,13.90711849016698
1080,17.087695560712646
1081,25.13328375588611
465,22.554600549980442
600,24.333312771489133
666,24.410606424564254
732,24.444960162800704
798,24.25421915988248
864,22.999133361302142
2,1, 6, 1, 0, 8,30.00,45.00,Wednesday
7,21.775
18,0.0
19,0.0
20,0.0
21,0.0
22,0.0
1077,14.693748770547245
1078,12.570571700573339
1079,12.840415392076352
1080,14.8309619105232
1081,22.880403668406643
465,22.648329314710274
600,24.500393398599407
666,24.5008655038597
732,24.500763244466768
798,24.501312124613506
864,23.257655309625783
2,1, 6, 1, 0, 8,45.00,60.00,Wednesday
7,22.5
18,0.0
19,0.0
20,0.0
21,0.0
22,0.0
1077,14.036468322968233
1078,11.840078336687498
1079,12.207626478823485
1080,14.168645463295903
1081,21.22989935679105
465,22.783473299406616
600,24.501485618773557
666,24.500080078018303
732,24.500159384179398
798,24.50197443948091
864,23.475089965558006
2,1, 6, 1, 0, 9, 0.00,15.00,Wednesday
7,23.25
18,11.0
19,5.0
20,11.0
21,5.0
22,20.0
1077,8.687553561846272
1078,6.985853098352592
1079,7.3291478657322955
1080,8.765923175542099
1081,12.243744786378954
465,23.873890883501385
600,25.18558674227137
666,25.312841594163487
732,25.288151483479393
798,25.17054921173144
864,24.53374068860196
2,1, 6, 1, 0, 9,15.00,30.00,Wednesday
7,24.0
18,11.0
19,5.0
20,11.0
21,5.0
22,20.0
1077,6.974859264289961
1078,5.869370524321795
1079,6.139029020688824
1080,6.97306885104004
1081,8.451733324795939
465,24.424392721985054
600,25.452703012132872
666,25.498351477499714
732,25.498742785737285
798,25.446268890208387
864,25.199662453607175
2,1, 6, 1, 0, 9,30.00,45.00,Wednesday
7,24.75
18,11.0
19,5.0
20,11.0
21,5.0
22,20.0
1077,6.436570737499778
1078,5.566804725511574
1079,5.830339968266841
1080,6.410066405220775
1081,7.20852158844383
465,24.897971300042148
600,25.497746259701493
666,25.498275760413478
732,25.498492252884354
798,25.497547573149927
864,25.48082857900095
2,1, 6, 1, 0, 9,45.00,60.00,Wednesday
7,25.5
18,11.0
19,5.0
20,11.0
21,5.0
22,20.0
1077,6.091288340064594
1078,5.374069258851563
1079,5.625615753911063
1080,6.058988046013269
1081,6.7647287163018746
465,25.496547821535025
600,25.498264624587758
666,25.497845707315605
732,25.4980694446826
798,25.498203717960756
864,25.49824369325389
2,1, 6, 1, 0,10, 0.00,15.00,Wednesday
7,25.8
18,11.0
19,5.0
20,11.0
21,5.0
22,20.0
1077,5.829849078582512
1078,5.246696347521436
1079,5.492554476414156
1080,5.797651534436497
1081,6.420120614936238
465,25.882261634431902
600,25.497398789648127
666,25.497246987992433
732,25.497378208299743
798,25.497323715275186
864,25.497587980525502
2,1, 6, 1, 0,10,15.00,30.00,Wednesday
7,26.1
18,11.0
19,5.0
20,11.0
21,5.0
22,20.0
1077,5.75720557309954
1078,5.212989359640147
1079,5.4790176097722
1080,5.725403866617214
1081,6.310853643437639
465,26.253786238710433
600,25.497462328564563
666,25.497423171302785
732,25.497507078390143
798,25.49738984175205
864,25.497578347501772
2,1, 6, 1, 0,10,30.00,45.00,Wednesday
7,26.4
18,11.0
19,5.0
20,11.0
21,5.0
22,20.0
1077,5.705505360277257
1078,5.198431972054465
1079,5.48242776789678
1080,5.6750815933451975
1081,6.227711020265829
465,26.59963797067992
600,25.497539662592715
666,25.497560838353202
732,25.497616082362697
798,25.49746905047082
864,25.497580750202992
2,1, 6, 1, 0,10,45.00,60.00,Wednesday
7,26.7
18,11.0
19,5.0
20,11.0
21,5.0
22,20.0
1077,5.671003603030698
1078,5.189078252408322
1079,5.497538515177311
1080,5.641762104958502
1081,6.170255749534292
465,26.931121992865506
600,25.497555448825977
666,25.497603576351082
732,25.497648992736714
798,25.497485339937906
864,25.49754175969798
2,1, 6, 1, 0,11, 0.00,15.00,Wednesday
7,26.974999999999998
18,11.0
19,5.0
20,11.0
21,5.0
22,20.0
1077,5.6189099612572875
1078,5.170962108069958
1079,5.490906295864747
1080,5.589670294059459
1081,6.0819232681811
465,27.2814493981084
600,25.497634458734108
666,25.497707877886356
732,25.497735382735918
798,25.497564559122065
864,25.49757381333983
2,1, 6, 1, 0,11,15.00,30.00,Wednesday
7,27.25
18,11.0
19,5.0
20,11.0
21,5.0
22,20.0
1077,5.588286985188319
1078,5.165989900123833
1079,5.496020447280671
1080,5.559006361742732
1081,6.042141026194557
465,27.586431939241173
600,25.497687766659496
666,25.497763318169255
732,25.497782039110653
798,25.497617957964536
864,25.49759403964087
2,1, 6, 1, 0,11,30.00,45.00,Wednesday
7,27.525000000000002
18,11.0
19,5.0
20,11.0
21,5.0
22,20.0
1077,5.5719118241604235
1078,5.1715658032440786
1079,5.498493266794924
1080,5.54289929983139
1081,6.020547627176811
465,27.84711127191229
600,25.496113555231265
666,25.496358226908516
732,25.496313471844015
798,25.49603288251933
864,25.495744081703574
2,1, 6, 1, 0,11,45.00,60.00,Wednesday
7,27.8
18,11.0
19,5.0
20,11.0
21,5.0
22,20.0
1077,5.55724563408026
1078,5.1818366843436365
1079,5.4945708000858104
1080,5.5296510007759565
1081,6.0029550666303635
465,28.031317478677998
600,25.495902287977056
666,25.496136483302394
732,25.49608556210699
798,25.49581930357153
864,25.49547823948945
2,1, 6, 1, 0,12, 0.00,15.00,Wednesday
7,28.1
18,8.8
19,4.0
20,8.8
21,4.0
22,16.0
1077,5.602806422321464
1078,5.2345220917869
1079,5.549641665394134
1080,5.576306556779514
1081,6.070080931072241
465,28.24684621504321
600,25.495872905661898
666,25.4960049720696
732,25.496006374053067
798,25.495796532627864
864,25.49550472506628
2,1, 6, 1, 0,12,15.00,30.00,Wednesday
7,28.4
18,8.8
19,4.0
20,8.8
21,4.0
22,16.0
1077,5.630387654369386
1078,5.283419212382
1079,5.5879464040546765
1080,5.6055082257765605
1081,6.107597194952035
465,28.47525574796567
600,25.495987772777024
666,25.49613923629339
732,25.49609944862963
798,25.49591919606102
864,25.49558676717318
2,1, 6, 1, 0,12,30.00,45.00,Wednesday
7,28.7
18,8.8
19,4.0
20,8.8
21,4.0
22,16.0
1077,5.655498508343101
1078,5.337877038676851
1079,5.6234384251135054
1080,5.632653986726609
1081,6.1491474840235725
465,28.689975592344634
600,25.496161607452255
666,25.49635981071946
732,25.496259167940938
798,25.496101824836572
864,25.495718821513197
2,1, 6, 1, 0,12,45.00,60.00,Wednesday
7,29.0
18,8.8
19,4.0
20,8.8
21,4.0
22,16.0
1077,5.673710801021301
1078,5.393848261417176
1079,5.65105829113088
1080,5.653309812386112
1081,6.186435764568174
465,28.8892056274268
600,25.49630791957264
666,25.496536659350827
732,25.49639182049102
798,25.496254486858046
864,25.495837701292434
2,1, 6, 1, 0,13, 0.00,15.00,Wednesday
7,29.125
18,4.4
19,2.0
20,4.4
21,2.0
22,8.0
1077,5.820343871215414
1078,5.565705009200343
1079,5.811392310281505
1080,5.807471460475085
1081,6.387611572519518
465,29.09254745778749
600,25.497069195708747
666,25.497268399788656
732,25.497134789922207
798,25.497037953891848
864,25.496715623700794
2,1, 6, 1, 0,13,15.00,30.00,Wednesday
7,29.25
18,4.4
19,2.0
20,4.4
21,2.0
22,8.0
1077,5.875219303029155
1078,5.670993896434794
1079,5.879960863757603
1080,5.871573486574832
1081,6.456757396826617
465,29.291226753507686
600,25.497615307112184
666,25.497849948254608
732,25.497671325320336
798,25.497596395505607
864,25.4972112288217
2,1, 6, 1, 0,13,30.00,45.00,Wednesday
7,29.375
18,4.4
19,2.0
20,4.4
21,2.0
22,8.0
1077,5.907656966189194
1078,5.745212011061298
1079,5.926374256848987
1080,5.91220610241524
1081,6.5134388622172565
465,29.471251748839386
600,25.498089229597486
666,25.49832831490641
732,25.498134718347618
798,25.49807668394057
864,25.497643944140677
2,1, 6, 1, 0,13,45.00,60.00,Wednesday
7,29.5
18,4.4
19,2.0
20,4.4
21,2.0
22,8.0
1077,5.900672601904418
1078,5.7642371043612854
1079,5.932649261772951
1080,5.884200757949543
1081,6.524506292349969
465,29.632595542387186
600,25.498451567859686
666,25.49866030775858
732,25.498485999864844
798,25.498426855826548
864,25.49799786552678
2,1, 6, 1, 0,14, 0.00,15.00,Wednesday
7,29.6
18,8.8
19,4.0
20,8.8
21,4.0
22,16.0
1077,5.747454608750203
1078,5.644512789792913
1079,5.784590369124885
1080,5.690136231236096
1081,6.348225573451174
465,29.71231243712411
600,25.498550919113104
666,25.498742327131005
732,25.49857351714626
798,25.49849882059826
864,25.498003539807872
2,1, 6, 1, 0,14,15.00,30.00,Wednesday
7,29.7
18,8.8
19,4.0
20,8.8
21,4.0
22,16.0
1077,5.642644562043401
1078,5.569633678112041
1079,5.687265037010619
1080,5.546535993239829
1081,6.243723695719069
465,29.805782524430228
600,25.498530773120883
666,25.498661282505815
732,25.49854635401229
798,25.498446599031148
864,25.49804255964926
2,1, 6, 1, 0,14,30.00,45.00,Wednesday
7,29.799999999999997
18,8.8
19,4.0
20,8.8
21,4.0
22,16.0
1077,5.552286179678617
1078,5.506374985845113
1079,5.60460905274725
1080,5.4256323046920585
1081,6.139995095668553
465,29.916343933952156
600,25.498364547777886
666,25.498435999448027
732,25.4983777344753
798,25.498246669425914
864,25.497954979310222
2,1, 6, 1, 0,14,45.00,60.00,Wednesday
7,29.9
18,8.8
19,4.0
20,8.8
21,4.0
22,16.0
1077,5.476342563085794
1078,5.454170796928608
1079,5.535571498639129
1080,5.326797832148372
1081,6.045163874489376
465,30.018777473811074
600,25.498197685827492
666,25.498227932663433
732,25.49820983576956
798,25.49805435973801
864,25.497844361968728
2,1, 6, 1, 0,15, 0.00,15.00,Wednesday
7,30.025
18,11.0
19,5.0
20,11.0
21,5.0
22,20.0
1077,5.356679712290983
1078,5.352180363993369
1079,5.4152448432080575
1080,5.2017739603905255
1081,5.876452981827256
465,30.149328279107724
600,25.498096305581246
666,25.498096821868884
732,25.498103577667795
798,25.497938862479785
864,25.49775814611479
2,1, 6, 1, 0,15,15.00,30.00,Wednesday
7,30.15
18,11.0
19,5.0
20,11.0
21,5.0
22,20.0
1077,5.277889941891189
1078,5.2865907828622625
1079,5.3366567339022595
1080,5.123337036396947
1081,5.76546678304905
465,30.240229881922
600,25.497938335826348
666,25.497916283079757
732,25.497943082384907
798,25.497770314432902
864,25.497615242240208
2,1, 6, 1, 0,15,30.00,45.00,Wednesday
7,30.275
18,11.0
19,5.0
20,11.0
21,5.0
22,20.0
1077,5.214787082309968
1078,5.232269799480974
1079,5.272425497201652
1080,5.067386348617944
1081,5.666666108110746
465,30.30560841390529
600,25.497758413982748
666,25.497718061706486
732,25.49776153186547
798,25.4975815124674
864,25.497440775818333
2,1, 6, 1, 0,15,45.00,60.00,Wednesday
7,30.4
18,11.0
19,5.0
20,11.0
21,5.0
22,20.0
1077,5.166353249693643
1078,5.189357580627984
1079,5.222371593732291
1080,5.031202273535484
1081,5.584451009628822
465,30.363151960559584
600,25.497617322344254
666,25.497562939707922
732,25.497617869673544
798,25.4974403757789
864,25.497289552454212
2,1, 6, 1, 0,16, 0.00,15.00,Wednesday
7,30.275
18,11.0
19,5.0
20,11.0
21,5.0
22,20.0
1077,5.142100202234374
1078,5.170396118013713
1079,5.1999920269123265
1080,5.01466022711233
1081,5.529690865699891
465,30.469972249494948
600,25.49742425890594
666,25.497364088499044
732,25.49743404664596
798,25.49722508944032
864,25.497138062003234
2,1, 6, 1, 0,16,15.00,30.00,Wednesday
7,30.15
18,11.0
19,5.0
20,11.0
21,5.0
22,20.0
1077,5.1210390257776055
1078,5.152674691365192
1079,5.178782694836329
1080,5.004664602762929
1081,5.4761332833056855
465,30.540698365743324
600,25.49726414109315
666,25.497199114492503
732,25.497274101836826
798,25.49706677049412
864,25.49695442174051
2,1, 6, 1, 0,16,30.00,45.00,Wednesday
7,30.025
18,11.0
19,5.0
20,11.0
21,5.0
22,20.0
1077,5.108242431115883
1078,5.140728531585424
1079,5.164652042628205
1080,5.00108677026121
1081,5.4372545489415955
465,30.581645105794692
600,25.49715188732087
666,25.497078935821452
732,25.4971550420297
798,25.496977463958185
864,25.496798253195536
2,1, 6, 1, 0,16,45.00,60.00,Wednesday
7,29.9
18,11.0
19,5.0
20,11.0
21,5.0
22,20.0
1077,5.1010250246379485
1078,5.133940362386582
1079,5.15652375542021
1080,5.000054663536204
1081,5.409743554662867
465,30.61300299475145
600,25.49707432438946
666,25.496993122309757
732,25.497068777196
798,25.49692799893507
864,25.496674163173072
2,1, 6, 1, 0,17, 0.00,15.00,Wednesday
7,29.799999999999997
18,11.0
19,5.0
20,11.0
21,5.0
22,20.0
1077,5.105401690078125
1078,5.139372930091824
1079,5.161184757875375
1080,5.000017013813874
1081,5.4041995239884955
465,30.748118540527642
600,25.496999162476726
666,25.496921328303216
732,25.497009305164422
798,25.49679981713131
864,25.496715422998218
2,1, 6, 1, 0,17,15.00,30.00,Wednesday
7,29.7
18,11.0
19,5.0
20,11.0
21,5.0
22,20.0
1077,5.106115869464077
1078,5.138037348585613
1079,5.159459576706141
1080,5.000026496773145
1081,5.386181029125382
465,30.811821327192806
600,25.496980770161873
666,25.496892912233747
732,25.496979792132773
798,25.496802854926635
864,25.4966585571778
2,1, 6, 1, 0,17,30.00,45.00,Wednesday
7,29.6
18,11.0
19,5.0
20,11.0
21,5.0
22,20.0
1077,5.128007077580264
1078,5.158019003249038
1079,5.1810553526382535
1080,5.000748783546584
1081,5.4036801677944055
465,30.823007352832125
600,25.497003437081645
666,25.49690189528573
732,25.496984624526927
798,25.496875924169046
864,25.496613065115163
2,1, 6, 1, 0,17,45.00,60.00,Wednesday
7,29.5
18,11.0
19,5.0
20,11.0
21,5.0
22,20.0
1077,5.149922984572726
1078,5.17808110191973
1079,5.203230794950315
1080,5.00327590001865
1081,5.420715042623456
465,30.821845528772457
600,25.49703471283303
666,25.496923352668883
732,25.49700305438896
798,25.496948561117485
864,25.49658982561478
2,1, 6, 1, 0,18, 0.00,15.00,Wednesday
7,29.375
18,11.0
19,5.0
20,11.0
21,5.0
22,20.0
1077,5.178421418121573
1078,5.203834914216955
1079,5.229213890820716
1080,5.0092309406471
1081,5.446416543629425
465,30.811940973341432
600,25.497052879210507
666,25.49693445259913
732,25.497009500776148
798,25.49699321059764
864,25.496570978226302
2,1, 6, 1, 0,18,15.00,30.00,Wednesday
7,29.25
18,11.0
19,5.0
20,11.0
21,5.0
22,20.0
1077,5.2141665725401936
1078,5.235838401230339
1079,5.262963761986256
1080,5.020682905454521
1081,5.4807939883359325
465,30.788378079680477
600,25.497069722653386
666,25.4969460532853
732,25.49701915735183
798,25.497027454733278
864,25.49656478423932
2,1, 6, 1, 0,18,30.00,45.00,Wednesday
7,29.125
18,11.0
19,5.0
20,11.0
21,5.0
22,20.0
1077,5.285284379831879
1078,5.300137859927233
1079,5.331848596626415
1080,5.058800146185462
1081,5.558550079553726
465,30.757325454552642
600,25.497113964227875
666,25.496984753974605
732,25.497057362245023
798,25.497107003082714
864,25.49659097890344
2,1, 6, 1, 0,18,45.00,60.00,Wednesday
7,29.0
18,11.0
19,5.0
20,11.0
21,5.0
22,20.0
1077,5.35649810678288
1078,5.366923198749362
1079,5.402413803029873
1080,5.108729701224917
1081,5.63167247949923
465,30.71537265801344
600,25.49715206609347
666,25.497023141027473
732,25.497095146855063
798,25.497168489291084
864,25.4966218696185
2,1, 6, 1, 0,19, 0.00,15.00,Wednesday
7,28.65
18,5.5
19,2.5
20,5.5
21,2.5
22,10.0
1077,5.6908004877650455
1078,5.702751824986535
1079,5.7502157338904
1080,5.358166236033981
1081,6.028728231239725
465,30.74890412729787
600,25.49816769457797
666,25.498094355634212
732,25.49815997778708
798,25.498076706458107
864,25.497989802486515
2,1, 6, 1, 0,19,15.00,30.00,Wednesday
7,28.3
18,5.5
19,2.5
20,5.5
21,2.5
22,10.0
1077,5.918115882509781
1078,5.926767725702945
1079,5.983175438291681
1080,5.602180323187568
1081,6.217505465881359
465,30.77423860646011
600,25.498522885755552
666,25.498460463246225
732,25.498509985448976
798,25.498515333106248
864,25.498296299487198
2,1, 6, 1, 0,19,30.00,45.00,Wednesday
7,27.950000000000003
18,5.5
19,2.5
20,5.5
21,2.5
22,10.0
1077,6.099120146379235
1078,6.1181000826710346
1079,6.17760480316872
1080,5.778289019503404
1081,6.365036381660246
465,30.75860862846047
600,25.498742865137515
666,25.498683301170534
732,25.498718978951246
798,25.498774903829116
864,25.498471153342614
2,1, 6, 1, 0,19,45.00,60.00,Wednesday
7,27.6
18,5.5
19,2.5
20,5.5
21,2.5
22,10.0
1077,6.2822309538035626
1078,6.283284573473011
1079,6.348045474515459
1080,5.969686311529145
1081,6.507251110391067
465,30.690607539419855
600,25.4988916424577
666,25.498829394305584
732,25.49885725817852
798,25.49894605888095
864,25.498600248792272
2,1, 6, 1, 0,20, 0.00,15.00,Wednesday
7,27.250000000000004
18,3.3
19,1.5
20,3.3
21,1.5
22,6.0
1077,6.645467487963074
1078,6.650545538124192
1079,6.716843460246338
1080,6.373980155832712
1081,6.857613681787214
465,30.52369086115411
600,25.49918368264428
666,25.499148714321475
732,25.49917156713751
798,25.499206915455368
864,25.498974319036012
2,1, 6, 1, 0,20,15.00,30.00,Wednesday
7,26.9
18,3.3
19,1.5
20,3.3
21,1.5
22,6.0
1077,6.9063488056714135
1078,6.904120037296195
1079,6.974438867452605
1080,6.696041182395007
1081,7.085408215921888
465,30.37999815015344
600,25.49931003838098
666,25.499288404253083
732,25.499306997697754
798,25.49935003108259
864,25.499096804805344
2,1, 6, 1, 0,20,30.00,45.00,Wednesday
7,26.549999999999997
18,3.3
19,1.5
20,3.3
21,1.5
22,6.0
1077,7.096077063731556
1078,7.106715063471114
1079,7.175161219053749
1080,6.905971759230084
1081,7.23259640678063
465,30.24755386345128
600,25.4993956252752
666,25.490871755267122
732,25.499395209063493
798,25.499442633296155
864,25.499180219412192
2,1, 6, 1, 0,20,45.00,60.00,Wednesday
7,26.2
18,3.3
19,1.5
20,3.3
21,1.5
22,6.0
1077,7.33559838943674
1078,7.400200627182528
1079,7.395900037994792
1080,7.0940861816162055
1081,7.361129873568416
465,30.08241082025916
600,25.47786572855268
666,25.437445070936956
732,25.4703196282819
798,25.499509874082893
864,25.499244553415803
2,1, 6, 1, 0,21, 0.00,15.00,Wednesday
7,25.849999999999998
18,3.3
19,1.5
20,3.3
21,1.5
22,6.0
1077,7.636567687851965
1078,7.770933942469185
1079,7.697146808933013
1080,7.377238641454241
1081,7.483954942206125
465,29.872914052291954
600,25.413104261416375
666,25.34693166866569
732,25.402351325782384
798,25.444517979899672
864,25.499314288125678
2,1, 6, 1, 0,21,15.00,30.00,Wednesday
7,25.5
18,3.3
19,1.5
20,3.3
21,1.5
22,6.0
1077,8.023673440563954
1078,8.173848964034264
1079,8.060916472081914
1080,7.804210324282167
1081,7.583093756334421
465,29.64062862950174
600,25.32192496740481
666,25.24974850593875
732,25.31598181450329
798,25.340664039871346
864,25.499369083669237
2,1, 6, 1, 0,21,30.00,45.00,Wednesday
7,25.150000000000002
18,3.3
19,1.5
20,3.3
21,1.5
22,6.0
1077,8.415547870433613
1078,8.571993631017293
1079,8.411653187593913
1080,8.290435854610351
1081,7.630367644398547
465,29.404092830790585
600,25.226788916237503
666,25.16106037767289
732,25.23046239431976
798,25.223387715343467
864,25.499411145010033
2,1, 6, 1, 0,21,45.00,60.00,Wednesday
7,24.8
18,3.3
19,1.5
20,3.3
21,1.5
22,6.0
1077,8.816558537315814
1078,8.941353803451989
1079,8.761140412335394
1080,8.76718405119486
1081,7.7091092076584715
465,29.17065043051373
600,25.139716443047707
666,25.083383480266743
732,25.154098461058766
798,25.11654550459921
864,25.4994427554421
2,1, 6, 1, 0,22, 0.00,15.00,Wednesday
7,24.725
18,0.0
19,0.0
20,0.0
21,0.0
22,0.0