Program Version,EnergyPlus, Version 23.2.0-7636e6b3e9, YMD=2025.09.23 10:49
1,5,Environment Title[],Latitude[deg],Longitude[deg],Time Zone[],Elevation[m]
2,8,Day of Simulation[],Month[],Day of Month[],DST Indicator[1=yes 0=no],Hour[],StartMinute[],EndMinute[],DayType
3,5,Cumulative Day of Simulation[],Month[],Day of Month[],DST Indicator[1=yes 0=no],DayType  ! When Daily Meters Requested
4,2,Cumulative Days of Simulation[],Month[]  ! When Monthly Meters Requested
5,1,Cumulative Days of Simulation[] ! When Run Period Meters Requested
6,1,Calendar Year of Simulation[] ! When Annual Meters Requested
41,1,Electricity:Facility [J] !TimeStep
53,1,Electricity:Building [J] !TimeStep
89,1,InteriorLights:Electricity [J] !TimeStep
4107,1,Electricity:HVAC [J] !TimeStep
4170,1,Electricity:Plant [J] !TimeStep
46,11,Electricity:Facility [J] !RunPeriod [Value,Min,Month,Day,Hour,Minute,Max,Month,Day,Hour,Minute]
58,11,Electricity:Building [J] !RunPeriod [Value,Min,Month,Day,Hour,Minute,Max,Month,Day,Hour,Minute]
94,11,InteriorLights:Electricity [J] !RunPeriod [Value,Min,Month,Day,Hour,Minute,Max,Month,Day,Hour,Minute]
4112,11,Electricity:HVAC [J] !RunPeriod [Value,Min,Month,Day,Hour,Minute,Max,Month,Day,Hour,Minute]
4175,11,Electricity:Plant [J] !RunPeriod [Value,Min,Month,Day,Hour,Minute,Max,Month,Day,Hour,Minute]
End of Data Dictionary
1,RUN PERIOD 1,  36.60, 117.05,   8.00, 215.00
2,1, 6, 1, 0, 1, 0.00,15.00,Monday
41,18748010.529527318
53,1360800.0
89,972000.0
4107,2633742.0809810273
4170,14753468.44854629
2,1, 6, 1, 0, 1,15.00,30.00,Monday
41,18741933.579902627
53,1360800.0
89,972000.0
4107,2633742.0809810273
4170,14747391.4989216
2,1, 6, 1, 0, 1,30.00,45.00,Monday
41,18735035.432384036
53,1360800.0
89,972000.0
4107,2633742.0809810273
4170,14740493.35140301
2,1, 6, 1, 0, 1,45.00,60.00,Monday
41,18727557.598297793
53,1360800.0
89,972000.0
4107,2633742.0809810273
4170,14733015.517316766
2,1, 6, 1, 0, 2, 0.00,15.00,Monday
41,18727329.109110102
53,1360800.0
89,972000.0
4107,2633742.0809810273
4170,14732787.028129075
2,1, 6, 1, 0, 2,15.00,30.00,Monday
41,18727086.130511053
53,1360800.0
89,972000.0
4107,2633742.0809810273
4170,14732544.049530026
2,1, 6, 1, 0, 2,30.00,45.00,Monday
41,18726828.93766026
53,1360800.0
89,972000.0
4107,2633742.0809810273
4170,14732286.85667923
2,1, 6, 1, 0, 2,45.00,60.00,Monday
41,18726557.6968447
53,1360800.0
89,972000.0
4107,2633742.0809810273
4170,14732015.615863673
2,1, 6, 1, 0, 3, 0.00,15.00,Monday
41,18725541.34861219
53,1360800.0
89,972000.0
4107,2633742.0809810273
4170,14730999.267631162
2,1, 6, 1, 0, 3,15.00,30.00,Monday
41,18724524.148757543
53,1360800.0
89,972000.0
4107,2633742.0809810273
4170,14729982.067776516
2,1, 6, 1, 0, 3,30.00,45.00,Monday
41,18723506.5168404
53,1360800.0
89,972000.0
4107,2633742.0809810273
4170,14728964.435859371
2,1, 6, 1, 0, 3,45.00,60.00,Monday
41,18722488.657714956
53,1360800.0
89,972000.0
4107,2633742.0809810273
4170,14727946.576733928
2,1, 6, 1, 0, 4, 0.00,15.00,Monday
41,18721403.28586249
53,1360800.0
89,972000.0
4107,2633742.0809810273
4170,14726861.204881463
2,1, 6, 1, 0, 4,15.00,30.00,Monday
41,18720309.316658333
53,1360800.0
89,972000.0
4107,2633742.0809810273
4170,14725767.235677306
2,1, 6, 1, 0, 4,30.00,45.00,Monday
41,18719206.915918194
53,1360800.0
89,972000.0
4107,2633742.0809810273
4170,14724664.834937166
2,1, 6, 1, 0, 4,45.00,60.00,Monday
41,18718096.389169984
53,1360800.0
89,972000.0
4107,2633742.0809810273
4170,14723554.308188956
2,1, 6, 1, 0, 5, 0.00,15.00,Monday
41,18717513.962966643
53,1360800.0
89,972000.0
4107,2633742.0809810273
4170,14722971.881985616
2,1, 6, 1, 0, 5,15.00,30.00,Monday
41,18716813.004451588
53,1360800.0
89,972000.0
4107,2633742.0809810273
4170,14722270.92347056
2,1, 6, 1, 0, 5,30.00,45.00,Monday
41,18715992.063035715
53,1360800.0
89,972000.0
4107,2633742.0809810273
4170,14721449.982054688
2,1, 6, 1, 0, 5,45.00,60.00,Monday
41,18715049.83372317
53,1360800.0
89,972000.0
4107,2633742.0809810273
4170,14720507.752742141
2,1, 6, 1, 0, 6, 0.00,15.00,Monday
41,18715200.012120012
53,1360800.0
89,972000.0
4107,2633742.0809810273
4170,14720657.931138985
2,1, 6, 1, 0, 6,15.00,30.00,Monday
41,18715099.97093811
53,1360800.0
89,972000.0
4107,2633742.0809810273
4170,14720557.889957082
2,1, 6, 1, 0, 6,30.00,45.00,Monday
41,18714738.999410644
53,1360800.0
89,972000.0
4107,2633742.0809810273
4170,14720196.918429617
2,1, 6, 1, 0, 6,45.00,60.00,Monday
41,18714107.302612517
53,1360800.0
89,972000.0
4107,2633742.0809810273
4170,14719565.22163149
2,1, 6, 1, 0, 7, 0.00,15.00,Monday
41,18714396.248781294
53,1360800.0
89,972000.0
4107,2633742.0809810273
4170,14719854.167800266
2,1, 6, 1, 0, 7,15.00,30.00,Monday
41,18714558.2524875
53,1360800.0
89,972000.0
4107,2633742.0809810273
4170,14720016.171506472
2,1, 6, 1, 0, 7,30.00,45.00,Monday
41,18714596.965625394
53,1360800.0
89,972000.0
4107,2633742.0809810273
4170,14720054.884644367
2,1, 6, 1, 0, 7,45.00,60.00,Monday
41,18714515.775050946
53,1360800.0
89,972000.0
4107,2633742.0809810273
4170,14719973.694069918
2,1, 6, 1, 0, 8, 0.00,15.00,Monday
41,18715716.770334803
53,1360800.0
89,972000.0
4107,2633742.0809810273
4170,14721174.689353775
2,1, 6, 1, 0, 8,15.00,30.00,Monday
41,18716494.6683833
53,1360800.0
89,972000.0
4107,2633742.0809810273
4170,14721952.587402273
2,1, 6, 1, 0, 8,30.00,45.00,Monday
41,18716813.720556874
53,1360800.0
89,972000.0
4107,2633742.0809810273
4170,14722271.639575846
2,1, 6, 1, 0, 8,45.00,60.00,Monday
41,18716640.587508995
53,1360800.0
89,972000.0
4107,2633742.0809810273
4170,14722098.506527968
2,1, 6, 1, 0, 9, 0.00,15.00,Monday
41,53116604.496805884
53,25272000.0
89,17496000.0
4107,2863859.8741044328
4170,24980744.62270146
2,1, 6, 1, 0, 9,15.00,30.00,Monday
41,44794956.724951334
53,25272000.0
89,17496000.0
4107,2714895.25691267
4170,16808061.468038674
2,1, 6, 1, 0, 9,30.00,45.00,Monday
41,42731555.56294304
53,25272000.0
89,17496000.0
4107,2733390.208384493
4170,14726165.354558554
2,1, 6, 1, 0, 9,45.00,60.00,Monday
41,42777040.94641207
53,25272000.0
89,17496000.0
4107,2778339.1153395595
4170,14726701.83107251
2,1, 6, 1, 0,10, 0.00,15.00,Monday
41,55033834.58479948
53,35964000.0
89,18468000.0
4107,3030336.3146358975
4170,16039498.27016358
2,1, 6, 1, 0,10,15.00,30.00,Monday
41,55878380.688613586
53,35964000.0
89,18468000.0
4107,3077908.840474083
4170,16836471.848139502
2,1, 6, 1, 0,10,30.00,45.00,Monday
41,56502807.370791756
53,35964000.0
89,18468000.0
4107,3123332.515726946
4170,17415474.85506481
2,1, 6, 1, 0,10,45.00,60.00,Monday
41,57048666.085995026
53,35964000.0
89,18468000.0
4107,3162870.903226017
4170,17921795.182769004
2,1, 6, 1, 0,11, 0.00,15.00,Monday
41,58530863.18202143
53,36936000.0
89,19440000.0
4107,3202914.9599364353
4170,18391948.222085
2,1, 6, 1, 0,11,15.00,30.00,Monday
41,59011624.94441744
53,36936000.0
89,19440000.0
4107,3240242.2440688345
4170,18835382.7003486
2,1, 6, 1, 0,11,30.00,45.00,Monday
41,59440936.9951326
53,36936000.0
89,19440000.0
4107,3274069.6805388974
4170,19230867.314593703
2,1, 6, 1, 0,11,45.00,60.00,Monday
41,59847079.17973379
53,36936000.0
89,19440000.0
4107,3306910.725661259
4170,19604168.454072524
2,1, 6, 1, 0,12, 0.00,15.00,Monday
41,58628390.65358629
53,35964000.0
89,18468000.0
4107,3251200.260456213
4170,19413190.393130075
2,1, 6, 1, 0,12,15.00,30.00,Monday
41,58935834.737412535
53,35964000.0
89,18468000.0
4107,3272317.7525049085
4170,19699516.984907623
2,1, 6, 1, 0,12,30.00,45.00,Monday
41,59298812.85932969
53,35964000.0
89,18468000.0
4107,3297928.2046946636
4170,20036884.65463504
2,1, 6, 1, 0,12,45.00,60.00,Monday
41,59665294.06446708
53,35964000.0
89,18468000.0
4107,3325003.2470845785
4170,20376290.81738251
2,1, 6, 1, 0,13, 0.00,15.00,Monday
41,55668986.03186853
53,33048000.0
89,15552000.0
4107,3173827.1656225533
4170,19447158.866245974
2,1, 6, 1, 0,13,15.00,30.00,Monday
41,55689388.34604708
53,33048000.0
89,15552000.0
4107,3175453.6174495495
4170,19465934.728597526
2,1, 6, 1, 0,13,30.00,45.00,Monday
41,55851880.40679329
53,33048000.0
89,15552000.0
4107,3186297.5491571873
4170,19617582.857636098
2,1, 6, 1, 0,13,45.00,60.00,Monday
41,56048323.01676818
53,33048000.0
89,15552000.0
4107,3200991.2274215976
4170,19799331.789346587
2,1, 6, 1, 0,14, 0.00,15.00,Monday
41,59496759.609783
53,34992000.0
89,17496000.0
4107,3400284.7616691953
4170,21104474.848113805
2,1, 6, 1, 0,14,15.00,30.00,Monday
41,59921083.25523875
53,34992000.0
89,17496000.0
4107,3447600.724129319
4170,21481482.531109434
2,1, 6, 1, 0,14,30.00,45.00,Monday
41,60216751.39229628
53,34992000.0
89,17496000.0
4107,3484802.1467682053
4170,21739949.24552806
2,1, 6, 1, 0,14,45.00,60.00,Monday
41,60494172.20677013
53,34992000.0
89,17496000.0
4107,3520353.428062559
4170,21981818.778707564
2,1, 6, 1, 0,15, 0.00,15.00,Monday
41,60934668.27120927
53,34992000.0
89,19440000.0
4107,3583361.2569505554
4170,22359307.01425872
2,1, 6, 1, 0,15,15.00,30.00,Monday
41,61316979.62630635
53,34992000.0
89,19440000.0
4107,3630941.9512175703
4170,22694037.675088774
2,1, 6, 1, 0,15,30.00,45.00,Monday
41,61629164.48103218
53,34992000.0
89,19440000.0
4107,3672819.5392625458
4170,22964344.941769626
2,1, 6, 1, 0,15,45.00,60.00,Monday
41,61909878.1711545
53,34992000.0
89,19440000.0
4107,3711580.066884977
4170,23206298.104269523
2,1, 6, 1, 0,16, 0.00,15.00,Monday
41,59509028.159370534
53,33048000.0
89,19440000.0
4107,3635112.9460908514
4170,22825915.21327969
2,1, 6, 1, 0,16,15.00,30.00,Monday
41,59535651.75195084
53,33048000.0
89,19440000.0
4107,3654962.4761718595
4170,22832689.275778975
2,1, 6, 1, 0,16,30.00,45.00,Monday
41,59561433.494240806
53,33048000.0
89,19440000.0
4107,3671651.387789321
4170,22841782.10645149
2,1, 6, 1, 0,16,45.00,60.00,Monday
41,59562412.686116636
53,33048000.0
89,19440000.0
4107,3684542.5886612856
4170,22829870.097455345
2,1, 6, 1, 0,17, 0.00,15.00,Monday
41,54562889.96600893
53,29160000.0
89,19440000.0
4107,3496133.543391525
4170,21906756.422617406
2,1, 6, 1, 0,17,15.00,30.00,Monday
41,54456004.731695704
53,29160000.0
89,19440000.0
4107,3492832.4642900936
4170,21803172.26740561
2,1, 6, 1, 0,17,30.00,45.00,Monday
41,54360725.39345016
53,29160000.0
89,19440000.0
4107,3485465.3603950376
4170,21715260.033055123
2,1, 6, 1, 0,17,45.00,60.00,Monday
41,54243892.35537119
53,29160000.0
89,19440000.0
4107,3475844.2823647964
4170,21608048.07300639
2,1, 6, 1, 0,18, 0.00,15.00,Monday
41,54103091.9974472
53,29160000.0
89,19440000.0
4107,3464579.988944199
4170,21478512.008502997
2,1, 6, 1, 0,18,15.00,30.00,Monday
41,53950761.99140683
53,29160000.0
89,19440000.0
4107,3451779.9402198214
4170,21338982.051187
2,1, 6, 1, 0,18,30.00,45.00,Monday
41,53745885.96123832
53,29160000.0
89,19440000.0
4107,3431000.3816803424
4170,21154885.579557974
2,1, 6, 1, 0,18,45.00,60.00,Monday
41,53529877.857490905
53,29160000.0
89,19440000.0
4107,3409183.1648809
4170,20960694.692609996
2,1, 6, 1, 0,19, 0.00,15.00,Monday
41,38577234.23121153
53,17496000.0
89,11664000.0
4107,3027694.0267484104
4170,18053540.20446311
2,1, 6, 1, 0,19,15.00,30.00,Monday
41,37652181.91439837
53,17496000.0
89,11664000.0
4107,2976003.9324084944
4170,17180177.98198988
2,1, 6, 1, 0,19,30.00,45.00,Monday
41,37082080.18950578
53,17496000.0
89,11664000.0
4107,2946122.187626083
4170,16639958.0018797
2,1, 6, 1, 0,19,45.00,60.00,Monday
41,36580211.62459885
53,17496000.0
89,11664000.0
4107,2922826.802415373
4170,16161384.822183486
2,1, 6, 1, 0,20, 0.00,15.00,Monday
41,31461591.330980364
53,13608000.0
89,7776000.0
4107,2848483.852084454
4170,15005107.478895914
2,1, 6, 1, 0,20,15.00,30.00,Monday
41,31177171.10432276
53,13608000.0
89,7776000.0
4107,2823158.321598517
4170,14746012.782724246
2,1, 6, 1, 0,20,30.00,45.00,Monday
41,31158852.243529547
53,13608000.0
89,7776000.0
4107,2806035.8868373516
4170,14744816.356692195
2,1, 6, 1, 0,20,45.00,60.00,Monday
41,31144718.979633037
53,13608000.0
89,7776000.0
4107,2792656.418274283
4170,14744062.561358754
2,1, 6, 1, 0,21, 0.00,15.00,Monday
41,31134235.779537864
53,13608000.0
89,7776000.0
4107,2782281.159950765
4170,14743954.619587097
2,1, 6, 1, 0,21,15.00,30.00,Monday
41,31125403.368756622
53,13608000.0
89,7776000.0
4107,2773677.198072149
4170,14743726.170684475
2,1, 6, 1, 0,21,30.00,45.00,Monday
41,31117703.29401822
53,13608000.0
89,7776000.0
4107,2766322.292221023
4170,14743381.0017972
2,1, 6, 1, 0,21,45.00,60.00,Monday
41,31110826.459814955
53,13608000.0
89,7776000.0
4107,2759903.0157545153
4170,14742923.444060437
2,1, 6, 1, 0,22, 0.00,15.00,Monday
41,18738682.31890743
53,1360800.0
89,972000.0
4107,2633742.0809810273
4170,14744140.237926401
2,1, 6, 1, 0,22,15.00,30.00,Monday
41,18739891.4576464
53,1360800.0
89,972000.0
4107,2633742.0809810273
4170,14745349.376665372
2,1, 6, 1, 0,22,30.00,45.00,Monday
41,18741092.71190657
53,1360800.0
89,972000.0
4107,2633742.0809810273
4170,14746550.630925544
2,1, 6, 1, 0,22,45.00,60.00,Monday
41,18742285.93460305
53,1360800.0
89,972000.0
4107,2633742.0809810273
4170,14747743.853622023
2,1, 6, 1, 0,23, 0.00,15.00,Monday
41,18743165.107678644
53,1360800.0
89,972000.0
4107,2633742.0809810273
4170,14748623.026697617
2,1, 6, 1, 0,23,15.00,30.00,Monday
41,18744027.141384937
53,1360800.0
89,972000.0
4107,2633742.0809810273
4170,14749485.06040391
2,1, 6, 1, 0,23,30.00,45.00,Monday
41,18744872.035883244
53,1360800.0
89,972000.0
4107,2633742.0809810273
4170,14750329.954902217
2,1, 6, 1, 0,23,45.00,60.00,Monday
41,18745699.502826232
53,1360800.0
89,972000.0
4107,2633742.0809810273
4170,14751157.421845205
2,1, 6, 1, 0,24, 0.00,15.00,Monday
41,18747529.102021143
53,1360800.0
89,972000.0
4107,2633742.0809810273
4170,14752987.021040116
2,1, 6, 1, 0,24,15.00,30.00,Monday
41,18749355.739653006
53,1360800.0
89,972000.0
4107,2633742.0809810273
4170,14754813.658671979
2,1, 6, 1, 0,24,30.00,45.00,Monday
41,18751179.202730767
53,1360800.0
89,972000.0
4107,2633742.0809810273
4170,14756637.12174974
2,1, 6, 1, 0,24,45.00,60.00,Monday
41,18752998.953351524
53,1360800.0
89,972000.0
4107,2633742.0809810273
4170,14758456.872370496
2,2, 6, 2, 0, 1, 0.00,15.00,Tuesday
41,18753714.050814364
53,1360800.0
89,972000.0
4107,2633742.0809810273
4170,14759171.969833337
2,2, 6, 2, 0, 1,15.00,30.00,Tuesday
41,18754424.72651527
53,1360800.0
89,972000.0
4107,2633742.0809810273
4170,14759882.645534243
2,2, 6, 2, 0, 1,30.00,45.00,Tuesday
41,18755130.88887971
53,1360800.0
89,972000.0
4107,2633742.0809810273
4170,14760588.807898682
2,2, 6, 2, 0, 1,45.00,60.00,Tuesday
41,18755832.60724252
53,1360800.0
89,972000.0
4107,2633742.0809810273
4170,14761290.526261494
2,2, 6, 2, 0, 2, 0.00,15.00,Tuesday
41,18757614.105605714
53,1360800.0
89,972000.0
4107,2633742.0809810273
4170,14763072.024624687
2,2, 6, 2, 0, 2,15.00,30.00,Tuesday
41,18759408.285224482
53,1360800.0
89,972000.0
4107,2633742.0809810273
4170,14764866.204243455
2,2, 6, 2, 0, 2,30.00,45.00,Tuesday
41,18761215.330486123
53,1360800.0
89,972000.0
4107,2633742.0809810273
4170,14766673.249505095
2,2, 6, 2, 0, 2,45.00,60.00,Tuesday
41,18763035.236616094
53,1360800.0
89,972000.0
4107,2633742.0809810273
4170,14768493.155635066
2,2, 6, 2, 0, 3, 0.00,15.00,Tuesday
41,18763729.72352905
53,1360800.0
89,972000.0
4107,2633742.0809810273
4170,14769187.64254802
2,2, 6, 2, 0, 3,15.00,30.00,Tuesday
41,18764419.331051007
53,1360800.0
89,972000.0
4107,2633742.0809810273
4170,14769877.25006998
2,2, 6, 2, 0, 3,30.00,45.00,Tuesday
41,18765104.12864335
53,1360800.0
89,972000.0
4107,2633742.0809810273
4170,14770562.047662321
2,2, 6, 2, 0, 3,45.00,60.00,Tuesday
41,18765783.921624344
53,1360800.0
89,972000.0
4107,2633742.0809810273
4170,14771241.840643317
2,2, 6, 2, 0, 4, 0.00,15.00,Tuesday
41,18765335.199906725
53,1360800.0
89,972000.0
4107,2633742.0809810273
4170,14770793.118925698
2,2, 6, 2, 0, 4,15.00,30.00,Tuesday
41,18764883.481070954
53,1360800.0
89,972000.0
4107,2633742.0809810273
4170,14770341.400089927
2,2, 6, 2, 0, 4,30.00,45.00,Tuesday
41,18764428.815041836
53,1360800.0
89,972000.0
4107,2633742.0809810273
4170,14769886.734060809
2,2, 6, 2, 0, 4,45.00,60.00,Tuesday
41,18763971.44984613
53,1360800.0
89,972000.0
4107,2633742.0809810273
4170,14769429.368865103
2,2, 6, 2, 0, 5, 0.00,15.00,Tuesday
41,18764631.498933103
53,1360800.0
89,972000.0
4107,2633742.0809810273
4170,14770089.417952076
2,2, 6, 2, 0, 5,15.00,30.00,Tuesday
41,18765286.359596923
53,1360800.0
89,972000.0
4107,2633742.0809810273
4170,14770744.278615896
2,2, 6, 2, 0, 5,30.00,45.00,Tuesday
41,18765936.127184886
53,1360800.0
89,972000.0
4107,2633742.0809810273
4170,14771394.04620386
2,2, 6, 2, 0, 5,45.00,60.00,Tuesday
41,18766580.70212896
53,1360800.0
89,972000.0
4107,2633742.0809810273
4170,14772038.621147934
2,2, 6, 2, 0, 6, 0.00,15.00,Tuesday
41,18766085.611781992
53,1360800.0
89,972000.0
4107,2633742.0809810273
4170,14771543.530800965
2,2, 6, 2, 0, 6,15.00,30.00,Tuesday
41,18765588.003049474
53,1360800.0
89,972000.0
4107,2633742.0809810273
4170,14771045.922068447
2,2, 6, 2, 0, 6,30.00,45.00,Tuesday
41,18765087.869259305
53,1360800.0
89,972000.0
4107,2633742.0809810273
4170,14770545.788278278
2,2, 6, 2, 0, 6,45.00,60.00,Tuesday
41,18764585.51986654
53,1360800.0
89,972000.0
4107,2633742.0809810273
4170,14770043.438885514
2,2, 6, 2, 0, 7, 0.00,15.00,Tuesday
41,18766415.72437373
53,1360800.0
89,972000.0
4107,2633742.0809810273
4170,14771873.643392704
2,2, 6, 2, 0, 7,15.00,30.00,Tuesday
41,18768269.82343103
53,1360800.0
89,972000.0
4107,2633742.0809810273
4170,14773727.742450003
2,2, 6, 2, 0, 7,30.00,45.00,Tuesday
41,18770148.163361516
53,1360800.0
89,972000.0
4107,2633742.0809810273
4170,14775606.082380489
2,2, 6, 2, 0, 7,45.00,60.00,Tuesday
41,18772050.914344702
53,1360800.0
89,972000.0
4107,2633742.0809810273
4170,14777508.833363675
2,2, 6, 2, 0, 8, 0.00,15.00,Tuesday
41,18772794.985886876
53,1360800.0
89,972000.0
4107,2633742.0809810273
4170,14778252.904905848
2,2, 6, 2, 0, 8,15.00,30.00,Tuesday
41,18773542.185042605
53,1360800.0
89,972000.0
4107,2633742.0809810273
4170,14779000.104061577
2,2, 6, 2, 0, 8,30.00,45.00,Tuesday
41,18774292.34759172
53,1360800.0
89,972000.0
4107,2633742.0809810273
4170,14779750.266610693
2,2, 6, 2, 0, 8,45.00,60.00,Tuesday
41,18775045.698073573
53,1360800.0
89,972000.0
4107,2633742.0809810273
4170,14780503.617092546
2,2, 6, 2, 0, 9, 0.00,15.00,Tuesday
41,53190288.98065976
53,25272000.0
89,17496000.0
4107,2859395.322241362
4170,25058893.658418406
2,2, 6, 2, 0, 9,15.00,30.00,Tuesday
41,43943306.446439125
53,25272000.0
89,17496000.0
4107,2690371.963791241
4170,15980934.482647896
2,2, 6, 2, 0, 9,30.00,45.00,Tuesday
41,42778463.27639059
53,25272000.0
89,17496000.0
4107,2719985.0882213125
4170,14786478.188169282
2,2, 6, 2, 0, 9,45.00,60.00,Tuesday
41,42820660.2357607
53,25272000.0
89,17496000.0
4107,2760136.6211111387
4170,14788523.614649568
2,2, 6, 2, 0,10, 0.00,15.00,Tuesday
41,55654708.936659165
53,35964000.0
89,18468000.0
4107,3006572.5087467656
4170,16684136.427912403
2,2, 6, 2, 0,10,15.00,30.00,Tuesday
41,56645546.88746428
53,35964000.0
89,18468000.0
4107,3062803.080084473
4170,17618743.807379805
2,2, 6, 2, 0,10,30.00,45.00,Tuesday
41,57329657.040736504
53,35964000.0
89,18468000.0
4107,3112823.9483768935
4170,18252833.092359614
2,2, 6, 2, 0,10,45.00,60.00,Tuesday
41,57872531.5344295
53,35964000.0
89,18468000.0
4107,3154023.853302628
4170,18754507.681126863
2,2, 6, 2, 0,11, 0.00,15.00,Tuesday
41,59360242.02610205
53,36936000.0
89,19440000.0
4107,3195474.2590107555
4170,19228767.767091293
2,2, 6, 2, 0,11,15.00,30.00,Tuesday
41,59837080.16787071
53,36936000.0
89,19440000.0
4107,3233145.3378783753
4170,19667934.82999233
2,2, 6, 2, 0,11,30.00,45.00,Tuesday
41,60155537.58030969
53,36936000.0
89,19440000.0
4107,3258736.406507195
4170,19960801.173802495
2,2, 6, 2, 0,11,45.00,60.00,Tuesday
41,60375126.46142605
53,36936000.0
89,19440000.0
4107,3277186.390880459
4170,20161940.070545588
2,2, 6, 2, 0,12, 0.00,15.00,Tuesday
41,58823557.81055087
53,35964000.0
89,18468000.0
4107,3209322.2459835866
4170,19650235.564567283
2,2, 6, 2, 0,12,15.00,30.00,Tuesday
41,58629961.821282186
53,35964000.0
89,18468000.0
4107,3185564.1844679555
4170,19480397.63681423
2,2, 6, 2, 0,12,30.00,45.00,Tuesday
41,58758760.00449809
53,35964000.0
89,18468000.0
4107,3193520.121704177
4170,19601239.882793907
2,2, 6, 2, 0,12,45.00,60.00,Tuesday
41,58977564.11414087
53,35964000.0
89,18468000.0
4107,3210741.902498779
4170,19802822.211642083
2,2, 6, 2, 0,13, 0.00,15.00,Tuesday
41,54712009.90453821
53,33048000.0
89,15552000.0
4107,3080569.8772538463
4170,18583440.027284358
2,2, 6, 2, 0,13,15.00,30.00,Tuesday
41,54771640.043483086
53,33048000.0
89,15552000.0
4107,3086459.2840627288
4170,18637180.759420358
2,2, 6, 2, 0,13,30.00,45.00,Tuesday
41,55246530.51652404
53,33048000.0
89,15552000.0
4107,3128651.4472427676
4170,19069879.069281276
2,2, 6, 2, 0,13,45.00,60.00,Tuesday
41,55461799.356048666
53,33048000.0
89,15552000.0
4107,3150439.011218238
4170,19263360.344830435
2,2, 6, 2, 0,14, 0.00,15.00,Tuesday
41,59179261.53071737
53,34992000.0
89,17496000.0
4107,3340377.768258461
4170,20846883.762458917
2,2, 6, 2, 0,14,15.00,30.00,Tuesday
41,59667937.50836629
53,34992000.0
89,17496000.0
4107,3387717.792223431
4170,21288219.71614286
2,2, 6, 2, 0,14,30.00,45.00,Tuesday
41,59971113.39650855
53,34992000.0
89,17496000.0
4107,3408190.9826693144
4170,21570922.41383923
2,2, 6, 2, 0,14,45.00,60.00,Tuesday
41,60187421.55433235
53,34992000.0
89,17496000.0
4107,3412608.0068835746
4170,21782813.54744878
2,2, 6, 2, 0,15, 0.00,15.00,Tuesday
41,60402117.26158292
53,34992000.0
89,19440000.0
4107,3431259.5212489273
4170,21978857.740333993
2,2, 6, 2, 0,15,15.00,30.00,Tuesday
41,60057647.68015116
53,34992000.0
89,19440000.0
4107,3375821.957463947
4170,21689825.722687203
2,2, 6, 2, 0,15,30.00,45.00,Tuesday
41,60113027.55946952
53,34992000.0
89,19440000.0
4107,3376999.95218587
4170,21744027.607283648
2,2, 6, 2, 0,15,45.00,60.00,Tuesday
41,60330481.62969836
53,34992000.0
89,19440000.0
4107,3397236.213804897
4170,21941245.41589346
2,2, 6, 2, 0,16, 0.00,15.00,Tuesday
41,58020746.58821542
53,33048000.0
89,19440000.0
4107,3346996.5038760216
4170,21625750.084339403
2,2, 6, 2, 0,16,15.00,30.00,Tuesday
41,58273323.471452
53,33048000.0
89,19440000.0
4107,3377525.5161739383
4170,21847797.95527806
2,2, 6, 2, 0,16,30.00,45.00,Tuesday
41,58894105.06224811
53,33048000.0
89,19440000.0
4107,3456078.5505982107
4170,22390026.51164991
2,2, 6, 2, 0,16,45.00,60.00,Tuesday
41,59088248.72937606
53,33048000.0
89,19440000.0
4107,3480190.736207524
4170,22560057.993168544
2,2, 6, 2, 0,17, 0.00,15.00,Tuesday
41,53936900.55568781
53,29160000.0
89,19440000.0
4107,3326917.1371723968
4170,21449983.418515403
2,2, 6, 2, 0,17,15.00,30.00,Tuesday
41,53812325.42566931
53,29160000.0
89,19440000.0
4107,3324523.5721805072
4170,21327801.8534888
2,2, 6, 2, 0,17,30.00,45.00,Tuesday
41,53629179.516836144
53,29160000.0
89,19440000.0
4107,3309786.141186971
4170,21159393.375649177
2,2, 6, 2, 0,17,45.00,60.00,Tuesday
41,53333087.7015364
53,29160000.0
89,19440000.0
4107,3282826.92122693
4170,20890260.780309476
2,2, 6, 2, 0,18, 0.00,15.00,Tuesday
41,53055859.36297396
53,29160000.0
89,19440000.0
4107,3252481.8158274065
4170,20643377.54714656
2,2, 6, 2, 0,18,15.00,30.00,Tuesday
41,52398936.490092225
53,29160000.0
89,19440000.0
4107,3184325.3794150073
4170,20054611.11067722
2,2, 6, 2, 0,18,30.00,45.00,Tuesday
41,52112602.297437735
53,29160000.0
89,19440000.0
4107,3157278.1130451285
4170,19795324.184392605
2,2, 6, 2, 0,18,45.00,60.00,Tuesday
41,51940456.544493206
53,29160000.0
89,19440000.0
4107,3140589.0789140705
4170,19639867.46557913
2,2, 6, 2, 0,19, 0.00,15.00,Tuesday
41,36571207.027442574
53,17496000.0
89,11664000.0
4107,2867664.0823025396
4170,16207542.945140041
2,2, 6, 2, 0,19,15.00,30.00,Tuesday
41,35902353.7231854
53,17496000.0
89,11664000.0
4107,2834437.963961196
4170,15571915.759224199
2,2, 6, 2, 0,19,30.00,45.00,Tuesday
41,35792881.09259742
53,17496000.0
89,11664000.0
4107,2830953.4511284763
4170,15465927.641468938
2,2, 6, 2, 0,19,45.00,60.00,Tuesday
41,35508503.13607
53,17496000.0
89,11664000.0
4107,2817956.4353700792
4170,15194546.700699914
2,2, 6, 2, 0,20, 0.00,15.00,Tuesday
41,31166423.978777323
53,13608000.0
89,7776000.0
4107,2760406.4583670087
4170,14798017.520410314
2,2, 6, 2, 0,20,15.00,30.00,Tuesday
41,31143905.53818148
53,13608000.0
89,7776000.0
4107,2740710.975955575
4170,14795194.562225908
2,2, 6, 2, 0,20,30.00,45.00,Tuesday
41,31128690.449634552
53,13608000.0
89,7776000.0
4107,2727371.532289311
4170,14793318.917345244
2,2, 6, 2, 0,20,45.00,60.00,Tuesday
41,31116166.0133418
53,13608000.0
89,7776000.0
4107,2716699.0670946157
4170,14791466.946247187
2,2, 6, 2, 0,21, 0.00,15.00,Tuesday
41,31106277.544097494
53,13608000.0
89,7776000.0
4107,2707765.118909782
4170,14790512.425187714
2,2, 6, 2, 0,21,15.00,30.00,Tuesday
41,31089171.014859986
53,13608000.0
89,7776000.0
4107,2691613.533650269
4170,14789557.481209718
2,2, 6, 2, 0,21,30.00,45.00,Tuesday
41,31084037.08615672
53,13608000.0
89,7776000.0
4107,2687434.7123717363
4170,14788602.373784985
2,2, 6, 2, 0,21,45.00,60.00,Tuesday
41,31079743.611638922
53,13608000.0
89,7776000.0
4107,2684096.2665004632
4170,14787647.34513846
2,2, 6, 2, 0,22, 0.00,15.00,Tuesday
41,18782065.73121987
53,1360800.0
89,972000.0
4107,2633742.0809810273
4170,14787523.650238842
2,2, 6, 2, 0,22,15.00,30.00,Tuesday
41,18781927.58092618
53,1360800.0
89,972000.0
4107,2633742.0809810273
4170,14787385.499945153
2,2, 6, 2, 0,22,30.00,45.00,Tuesday
41,18781774.70711172
53,1360800.0
89,972000.0
4107,2633742.0809810273
4170,14787232.626130693
2,2, 6, 2, 0,22,45.00,60.00,Tuesday
41,18781607.747488152
53,1360800.0
89,972000.0
4107,2633742.0809810273
4170,14787065.666507125
2,2, 6, 2, 0,23, 0.00,15.00,Tuesday
41,18780608.98846953
53,1360800.0
89,972000.0
4107,2633742.0809810273
4170,14786066.907488503
2,2, 6, 2, 0,23,15.00,30.00,Tuesday
41,18779611.087273005
53,1360800.0
89,972000.0
4107,2633742.0809810273
4170,14785069.006291978
2,2, 6, 2, 0,23,30.00,45.00,Tuesday
41,18778614.41471674
53,1360800.0
89,972000.0
4107,2633742.0809810273
4170,14784072.333735712
2,2, 6, 2, 0,23,45.00,60.00,Tuesday
41,18777618.71138194
53,1360800.0
89,972000.0
4107,2633742.0809810273
4170,14783076.630400911
2,2, 6, 2, 0,24, 0.00,15.00,Tuesday
41,18777405.438674036
53,1360800.0
89,972000.0
4107,2633742.0809810273
4170,14782863.35769301
2,2, 6, 2, 0,24,15.00,30.00,Tuesday
41,18777178.695310663
53,1360800.0
89,972000.0
4107,2633742.0809810273
4170,14782636.614329636
2,2, 6, 2, 0,24,30.00,45.00,Tuesday
41,18776938.99528927
53,1360800.0
89,972000.0
4107,2633742.0809810273
4170,14782396.914308243
2,2, 6, 2, 0,24,45.00,60.00,Tuesday
41,18776686.439268757
53,1360800.0
89,972000.0
4107,2633742.0809810273
4170,14782144.35828773
2,3, 6, 3, 0, 1, 0.00,15.00,Wednesday
41,18774892.04285015
53,1360800.0
89,972000.0
4107,2633742.0809810273
4170,14780349.961869124
2,3, 6, 3, 0, 1,15.00,30.00,Wednesday
41,18773120.188204207
53,1360800.0
89,972000.0
4107,2633742.0809810273
4170,14778578.10722318
2,3, 6, 3, 0, 1,30.00,45.00,Wednesday
41,18771370.5685432
53,1360800.0
89,972000.0
4107,2633742.0809810273
4170,14776828.487562172
2,3, 6, 3, 0, 1,45.00,60.00,Wednesday
41,18769642.753755514
53,1360800.0
89,972000.0
4107,2633742.0809810273
4170,14775100.672774486
2,3, 6, 3, 0, 2, 0.00,15.00,Wednesday
41,18767936.489339825
53,1360800.0
89,972000.0
4107,2633742.0809810273
4170,14773394.408358797
2,3, 6, 3, 0, 2,15.00,30.00,Wednesday
41,18766251.118335538
53,1360800.0
89,972000.0
4107,2633742.0809810273
4170,14771709.03735451
2,3, 6, 3, 0, 2,30.00,45.00,Wednesday
41,18764586.476154335
53,1360800.0
89,972000.0
4107,2633742.0809810273
4170,14770044.395173308
2,3, 6, 3, 0, 2,45.00,60.00,Wednesday
41,18762942.217538044
53,1360800.0
89,972000.0
4107,2633742.0809810273
4170,14768400.136557017
2,3, 6, 3, 0, 3, 0.00,15.00,Wednesday
41,18761317.78793055
53,1360800.0
89,972000.0
4107,2633742.0809810273
4170,14766775.70694952
2,3, 6, 3, 0, 3,15.00,30.00,Wednesday
41,18759713.106524915
53,1360800.0
89,972000.0
4107,2633742.0809810273
4170,14765171.025543887
2,3, 6, 3, 0, 3,30.00,45.00,Wednesday
41,18758127.518796325
53,1360800.0
89,972000.0
4107,2633742.0809810273
4170,14763585.437815297
2,3, 6, 3, 0, 3,45.00,60.00,Wednesday
41,18756561.027743194
53,1360800.0
89,972000.0
4107,2633742.0809810273
4170,14762018.946762167
2,3, 6, 3, 0, 4, 0.00,15.00,Wednesday
41,18756911.906697582
53,1360800.0
89,972000.0
4107,2633742.0809810273
4170,14762369.825716555
2,3, 6, 3, 0, 4,15.00,30.00,Wednesday
41,18757245.05848554
53,1360800.0
89,972000.0
4107,2633742.0809810273
4170,14762702.977504514
2,3, 6, 3, 0, 4,30.00,45.00,Wednesday
41,18757560.49977776
53,1360800.0
89,972000.0
4107,2633742.0809810273
4170,14763018.418796733
2,3, 6, 3, 0, 4,45.00,60.00,Wednesday
41,18757858.303012274
53,1360800.0
89,972000.0
4107,2633742.0809810273
4170,14763316.222031247
2,3, 6, 3, 0, 5, 0.00,15.00,Wednesday
41,18758762.397051957
53,1360800.0
89,972000.0
4107,2633742.0809810273
4170,14764220.31607093
2,3, 6, 3, 0, 5,15.00,30.00,Wednesday
41,18759645.45751378
53,1360800.0
89,972000.0
4107,2633742.0809810273
4170,14765103.376532752
2,3, 6, 3, 0, 5,30.00,45.00,Wednesday
41,18760507.38748255
53,1360800.0
89,972000.0
4107,2633742.0809810273
4170,14765965.306501523
2,3, 6, 3, 0, 5,45.00,60.00,Wednesday
41,18761348.239047274
53,1360800.0
89,972000.0
4107,2633742.0809810273
4170,14766806.158066247
2,3, 6, 3, 0, 6, 0.00,15.00,Wednesday
41,18761546.849501435
53,1360800.0
89,972000.0
4107,2633742.0809810273
4170,14767004.768520407
2,3, 6, 3, 0, 6,15.00,30.00,Wednesday
41,18761728.093993016
53,1360800.0
89,972000.0
4107,2633742.0809810273
4170,14767186.013011988
2,3, 6, 3, 0, 6,30.00,45.00,Wednesday
41,18761892.080876768
53,1360800.0
89,972000.0
4107,2633742.0809810273
4170,14767349.99989574
2,3, 6, 3, 0, 6,45.00,60.00,Wednesday
41,18762038.874882787
53,1360800.0
89,972000.0
4107,2633742.0809810273
4170,14767496.79390176
2,3, 6, 3, 0, 7, 0.00,15.00,Wednesday
41,18765087.31896263
53,1360800.0
89,972000.0
4107,2633742.0809810273
4170,14770545.237981603
2,3, 6, 3, 0, 7,15.00,30.00,Wednesday
41,18768183.871467926
53,1360800.0
89,972000.0
4107,2633742.0809810273
4170,14773641.790486898
2,3, 6, 3, 0, 7,30.00,45.00,Wednesday