Program Version,EnergyPlus, Version 23.2.0-7636e6b3e9, YMD=2025.09.22 22:36
1,5,Environment Title[],Latitude[deg],Longitude[deg],Time Zone[],Elevation[m]
2,8,Day of Simulation[],Month[],Day of Month[],DST Indicator[1=yes 0=no],Hour[],StartMinute[],EndMinute[],DayType
3,5,Cumulative Day of Simulation[],Month[],Day of Month[],DST Indicator[1=yes 0=no],DayType  ! When Daily Report Variables Requested
4,2,Cumulative Days of Simulation[],Month[]  ! When Monthly Report Variables Requested
5,1,Cumulative Days of Simulation[] ! When Run Period Report Variables Requested
6,1,Calendar Year of Simulation[] ! When Annual Report Variables Requested
7,1,Environment,Site Outdoor Air Drybulb Temperature [C] !TimeStep
18,1,SPACE1-1,Space People Occupant Count [] !TimeStep
19,1,SPACE2-1,Space People Occupant Count [] !TimeStep
20,1,SPACE3-1,Space People Occupant Count [] !TimeStep
21,1,SPACE4-1,Space People Occupant Count [] !TimeStep
22,1,SPACE5-1,Space People Occupant Count [] !TimeStep
465,1,PLENUM-1,Zone Air Temperature [C] !TimeStep
600,1,PLENUM-1,Zone Thermostat Heating Setpoint Temperature [C] !TimeStep
601,1,PLENUM-1,Zone Thermostat Cooling Setpoint Temperature [C] !TimeStep
602,1,SPACE1-1,Zone Air Temperature [C] !TimeStep
666,1,SPACE1-1,Zone Thermostat Heating Setpoint Temperature [C] !TimeStep
667,1,SPACE1-1,Zone Thermostat Cooling Setpoint Temperature [C] !TimeStep
668,1,SPACE2-1,Zone Air Temperature [C] !TimeStep
732,1,SPACE2-1,Zone Thermostat Heating Setpoint Temperature [C] !TimeStep
733,1,SPACE2-1,Zone Thermostat Cooling Setpoint Temperature [C] !TimeStep
734,1,SPACE3-1,Zone Air Temperature [C] !TimeStep
798,1,SPACE3-1,Zone Thermostat Heating Setpoint Temperature [C] !TimeStep
799,1,SPACE3-1,Zone Thermostat Cooling Setpoint Temperature [C] !TimeStep
800,1,SPACE4-1,Zone Air Temperature [C] !TimeStep
864,1,SPACE4-1,Zone Thermostat Heating Setpoint Temperature [C] !TimeStep
865,1,SPACE4-1,Zone Thermostat Cooling Setpoint Temperature [C] !TimeStep
866,1,SPACE5-1,Zone Air Temperature [C] !TimeStep
930,1,SPACE5-1,Zone Thermostat Heating Setpoint Temperature [C] !TimeStep
931,1,SPACE5-1,Zone Thermostat Cooling Setpoint Temperature [C] !TimeStep
1079,1,SPACE1-1 PEOPLE 1,Zone Thermal Comfort Fanger Model PPD [%] !TimeStep
1080,1,SPACE2-1 PEOPLE 1,Zone Thermal Comfort Fanger Model PPD [%] !TimeStep
1081,1,SPACE3-1 PEOPLE 1,Zone Thermal Comfort Fanger Model PPD [%] !TimeStep
1082,1,SPACE4-1 PEOPLE 1,Zone Thermal Comfort Fanger Model PPD [%] !TimeStep
1083,1,SPACE5-1 PEOPLE 1,Zone Thermal Comfort Fanger Model PPD [%] !TimeStep
End of Data Dictionary
1,RUN PERIOD 2,  36.60, 117.05,   8.00, 215.00
2,1, 6, 1, 0, 1, 0.00,15.00,Wednesday
7,22.5
18,0.0
19,0.0
20,0.0
21,0.0
22,0.0
1079,33.871031875205816
1080,34.29060240862658
1081,34.067189184669814
1082,34.7425687653773
1083,32.322921802272475
465,24.575500434865692
600,0.0
601,0.0
602,22.333081558911854
666,15.0
667,25.0
668,22.297993843198437
732,15.0
733,25.0
734,22.325584049004533
798,15.0
799,25.0
800,22.25484368482536
864,15.0
865,25.0
866,22.423594339715645
930,15.0
931,25.0
2,1, 6, 1, 0, 1,15.00,30.00,Wednesday
7,21.200000000000003
18,0.0
19,0.0
20,0.0
21,0.0
22,0.0
1079,35.286068552053734
1080,35.64383704896686
1081,35.48613109343408
1082,36.10909357507381
1083,33.21071033821815
465,24.390672252589486
600,0.0
601,0.0
602,22.24142808455881
666,15.0
667,30.0
668,22.20931099460352
732,15.0
733,30.0
734,22.233927932650275
798,15.0
799,30.0
800,22.166122845593602
864,15.0
865,30.0
866,22.359925638373397
930,15.0
931,30.0
2,1, 6, 1, 0, 1,30.00,45.00,Wednesday
7,19.900000000000002
18,0.0
19,0.0
20,0.0
21,0.0
22,0.0
1079,36.82975107702306
1080,37.13884826494818
1081,37.07556824681039
1082,37.6022977878465
1083,34.127049755312655
465,24.214594962450462
600,0.0
601,0.0
602,22.138650747963958
666,15.0
667,30.0
668,22.108897057082878
732,15.0
733,30.0
734,22.127262016237392
798,15.0
799,30.0
800,22.066186374871087
864,15.0
865,30.0
866,22.29361505113502
930,15.0
931,30.0
2,1, 6, 1, 0, 1,45.00,60.00,Wednesday
7,18.6
18,0.0
19,0.0
20,0.0
21,0.0
22,0.0
1079,38.459683805085625
1080,38.720298713276485
1081,38.769246595723736
1082,39.18618197995446
1083,35.05196599489689
465,24.04457172862367
600,0.0
601,0.0
602,22.03080837214768
666,15.0
667,30.0
668,22.003568129216
732,15.0
733,30.0
734,22.014175713839375
798,15.0
799,30.0
800,21.9611391009528
864,15.0
865,30.0
866,22.22756376128832
930,15.0
931,30.0
2,1, 6, 1, 0, 2, 0.00,15.00,Wednesday
7,18.475
18,0.0
19,0.0
20,0.0
21,0.0
22,0.0
1079,39.61227439661083
1080,39.87992954080727
1081,39.97056377977984
1082,40.345981024819274
1083,35.87154896470828
465,23.87889172528153
600,0.0
601,0.0
602,21.945715979120077
666,15.0
667,30.0
668,21.91965985356703
732,15.0
733,30.0
734,21.92550952457446
798,15.0
799,30.0
800,21.877263676130983
864,15.0
865,30.0
866,22.168749714330374
930,15.0
931,30.0
2,1, 6, 1, 0, 2,15.00,30.00,Wednesday
7,18.35
18,0.0
19,0.0
20,0.0
21,0.0
22,0.0
1079,40.55010888450043
1080,40.83403071649246
1081,40.93333326655055
1082,41.30096678112142
1083,36.60819595401819
465,23.71763726574138
600,0.0
601,0.0
602,21.8841286574033
666,15.0
667,30.0
668,21.857771850372604
732,15.0
733,30.0
734,21.86244933790037
798,15.0
799,30.0
800,21.8152105618844
864,15.0
865,30.0
866,22.118713257930693
930,15.0
931,30.0
2,1, 6, 1, 0, 2,30.00,45.00,Wednesday
7,18.225
18,0.0
19,0.0
20,0.0
21,0.0
22,0.0
1079,41.37125858810899
1080,41.680900764647845
1081,41.768729422706556
1082,42.14926878144935
1083,37.277382154005096
465,23.561230028100752
600,0.0
601,0.0
602,21.833358863698805
666,15.0
667,30.0
668,21.805746271402317
732,15.0
733,30.0
734,21.811193266466784
798,15.0
799,30.0
800,21.762927656809683
864,15.0
865,30.0
866,22.074962111242648
930,15.0
931,30.0
2,1, 6, 1, 0, 2,45.00,60.00,Wednesday
7,18.1
18,0.0
19,0.0
20,0.0
21,0.0
22,0.0
1079,42.156033070096065
1080,42.493745439913965
1081,42.56562692537922
1082,42.96327070077456
1083,37.90131147281921
465,23.409535065862812
600,0.0
601,0.0
602,21.7847342777718
666,15.0
667,30.0
668,21.755604358409638
732,15.0
733,30.0
734,21.762160757900165
798,15.0
799,30.0
800,21.712556718104402
864,15.0
865,30.0
866,22.03482799091556
930,15.0
931,30.0
2,1, 6, 1, 0, 3, 0.00,15.00,Wednesday
7,17.950000000000003
18,0.0
19,0.0
20,0.0
21,0.0
22,0.0
1079,42.98029802228614
1080,43.3646749214397
1081,43.429199729394895
1082,43.83018519155975
1083,38.51221064258753
465,23.261467777584688
600,0.0
601,0.0
602,21.73417980486922
666,15.0
667,30.0
668,21.70276915239473
732,15.0
733,30.0
734,21.709752850756768
798,15.0
799,30.0
800,21.659664461649385
864,15.0
865,30.0
866,21.99634273379447
930,15.0
931,30.0
2,1, 6, 1, 0, 3,15.00,30.00,Wednesday
7,17.8
18,0.0
19,0.0
20,0.0
21,0.0
22,0.0
1079,43.80783234449723
1080,44.24266944758916
1081,44.30856939597599
1082,44.704560223552456
1083,39.11189359674165
465,23.115998291494996
600,0.0
601,0.0
602,21.682842574442795
666,15.0
667,30.0
668,21.648542717392402
732,15.0
733,30.0
734,21.655320270084395
798,15.0
799,30.0
800,21.605624017684875
864,15.0
865,30.0
866,21.95878342016572
930,15.0
931,30.0
2,1, 6, 1, 0, 3,30.00,45.00,Wednesday
7,17.65
18,0.0
19,0.0
20,0.0
21,0.0
22,0.0
1079,44.62042727793387
1080,45.10779339224832
1081,45.178052644893725
1082,45.564239561065904
1083,39.70014994523148
465,22.973114541874782
600,0.0
601,0.0
602,21.632768831849283
666,15.0
667,30.0
668,21.595395249276955
732,15.0
733,30.0
734,21.601703017373946
798,15.0
799,30.0
800,21.552833041147398
864,15.0
865,30.0
866,21.92219728378514
930,15.0
931,30.0
2,1, 6, 1, 0, 3,45.00,60.00,Wednesday
7,17.5
18,0.0
19,0.0
20,0.0
21,0.0
22,0.0
1079,45.41023552858958
1080,45.9499629663779
1081,46.02514111673195
1082,46.40015357683026
1083,40.275218098082675
465,22.833590158573685
600,0.0
601,0.0
602,21.584716960814752
666,15.0
667,30.0
668,21.54430202856376
732,15.0
733,30.0
734,21.55012114249016
798,15.0
799,30.0
800,21.502164786484464
864,15.0
865,30.0
866,21.886775168084842
930,15.0
931,30.0
2,1, 6, 1, 0, 4, 0.00,15.00,Wednesday
7,17.575
18,0.0
19,0.0
20,0.0
21,0.0
22,0.0
1079,46.007529325527265
1080,46.57301165630171
1081,46.63101707860949
1082,47.02132946799101
1083,40.80510874471023
465,22.698739335507835
600,0.0
601,0.0
602,21.545961197824973
666,15.0
667,30.0
668,21.50399356858316
732,15.0
733,30.0
734,21.510266200778297
798,15.0
799,30.0
800,21.462116840347456
864,15.0
865,30.0
866,21.85364512990728
930,15.0
931,30.0
2,1, 6, 1, 0, 4,15.00,30.00,Wednesday
7,17.65
18,0.0
19,0.0
20,0.0
21,0.0
22,0.0
1079,46.50393386744795
1080,47.08283833028641
1081,47.113625663059075
1082,47.52988949126908
1083,41.30413709294135
465,22.568953264845923
600,0.0
601,0.0
602,21.51613443342559
666,15.0
667,30.0
668,21.473849071612435
732,15.0
733,30.0
734,21.481503974813645
798,15.0
799,30.0
800,21.431996575435655
864,15.0
865,30.0
866,21.823265548286248
930,15.0
931,30.0
2,1, 6, 1, 0, 4,30.00,45.00,Wednesday
7,17.725
18,0.0
19,0.0
20,0.0
21,0.0
22,0.0
1079,46.93530974448532
1080,47.52077322389087
1081,47.52036444525373
1082,47.96834828642087
1083,41.767254723509176
465,22.44612085547231
600,0.0
601,0.0
602,21.491365130199206
666,15.0
667,30.0
668,21.449193300443945
732,15.0
733,30.0
734,21.458653473205576
798,15.0
799,30.0
800,21.407214490512114
864,15.0
865,30.0
866,21.795493322555572
930,15.0
931,30.0
2,1, 6, 1, 0, 4,45.00,60.00,Wednesday
7,17.8
18,0.0
19,0.0
20,0.0
21,0.0
22,0.0
1079,47.32268904093794
1080,47.91142345875339
1081,47.880459332860525
1082,48.360391669952705
1083,42.197224179052874
465,22.325952529360702
600,0.0
601,0.0
602,21.4692580986286
666,15.0
667,30.0
668,21.42727883037049
732,15.0
733,30.0
734,21.438516159054785
798,15.0
799,30.0
800,21.385132853953266
864,15.0
865,30.0
866,21.770089217623678
930,15.0
931,30.0
2,1, 6, 1, 0, 5, 0.00,15.00,Wednesday
7,18.1
18,0.0
19,0.0
20,0.0
21,0.0
22,0.0
1079,47.64237018627825
1080,48.274340688584026
1081,48.21131261314423
1082,48.72044956480867
1083,42.597192733912
465,22.203978851224456
600,0.0
601,0.0
602,21.451223900295936
666,15.0
667,30.0
668,21.407656422274975
732,15.0
733,30.0
734,21.420663678610094
798,15.0
799,30.0
800,21.36557638281485
864,15.0
865,30.0
866,21.747368347837245
930,15.0
931,30.0
2,1, 6, 1, 0, 5,15.00,30.00,Wednesday
7,18.4
18,0.0
19,0.0
20,0.0
21,0.0
22,0.0
1079,47.91602147492284
1080,48.60372391118913
1081,48.50931158368943
1082,49.04574336492236
1083,42.97018974751778
465,22.083596523159695
600,0.0
601,0.0
602,21.43726267697075
666,15.0
667,30.0
668,21.39071794931846
732,15.0
733,30.0
734,21.405458089646153
798,15.0
799,30.0
800,21.34889560674787
864,15.0
865,30.0
866,21.727193325017282
930,15.0
931,30.0
2,1, 6, 1, 0, 5,30.00,45.00,Wednesday
7,18.7
18,0.0
19,0.0
20,0.0
21,0.0
22,0.0
1079,48.15484225680575
1080,48.90239980608624
1081,48.777660167007475
1082,49.340721997187394
1083,43.322024325211686
465,21.969098750698763
600,0.0
601,0.0
602,21.42637791559227
666,15.0
667,30.0
668,21.376648885102515
732,15.0
733,30.0
734,21.393019128636666
798,15.0
799,30.0
800,21.33512743404979
864,15.0
865,30.0
866,21.70920251897047
930,15.0
931,30.0
2,1, 6, 1, 0, 5,45.00,60.00,Wednesday
7,19.0
18,0.0
19,0.0
20,0.0
21,0.0
22,0.0
1079,47.991783282193815
1080,48.685595727718535
1081,48.43606040132964
1082,49.21868257361648
1083,43.32115273183813
465,21.86517302624913
600,0.0
601,0.0
602,21.430052651382823
666,15.0
667,30.0
668,21.38250039119968
732,15.0
733,30.0
734,21.40405590124245
798,15.0
799,30.0
800,21.337226057341375
864,15.0
865,30.0
866,21.7011812707933
930,15.0
931,30.0
2,1, 6, 1, 0, 6, 0.00,15.00,Wednesday
7,19.5
18,0.0
19,0.0
20,0.0
21,0.0
22,0.0
1079,47.89281452276455
1080,48.65049399917046
1081,48.37910691512516
1082,49.17528385157649
1083,43.460309931199355
465,21.774076288491923
600,0.0
601,0.0
602,21.444108064968468
666,15.0
667,30.0
668,21.396158103308682
732,15.0
733,30.0
734,21.420920987614345
798,15.0
799,30.0
800,21.349240447140087
864,15.0
865,30.0
866,21.700813584027554
930,15.0
931,30.0
2,1, 6, 1, 0, 6,15.00,30.00,Wednesday
7,20.0
18,0.0
19,0.0
20,0.0
21,0.0
22,0.0
1079,47.78626460324386
1080,48.63860053481597
1081,48.35971437652435
1082,49.13397273985849
1083,43.57642028028606
465,21.692651451749974
600,0.0
601,0.0
602,21.45944417744863
666,15.0
667,30.0
668,21.406862683963215
732,15.0
733,30.0
734,21.4320354635469
798,15.0
799,30.0
800,21.36163469790477
864,15.0
865,30.0
866,21.702184332630896
930,15.0
931,30.0
2,1, 6, 1, 0, 6,30.00,45.00,Wednesday
7,20.5
18,0.0
19,0.0
20,0.0
21,0.0
22,0.0
1079,46.426956061931975
1080,46.72780000505693
1081,46.111563734621406
1082,47.849429053103606
1083,42.49320773355916
465,21.634575879330665
600,0.0
601,0.0
602,21.51336555795453
666,15.0
667,30.0
668,21.478542367469572
732,15.0
733,30.0
734,21.512973895224384
798,15.0
799,30.0
800,21.4135964578318
864,15.0
865,30.0
866,21.733051676539695
930,15.0
931,30.0
2,1, 6, 1, 0, 6,45.00,60.00,Wednesday
7,21.0
18,0.0
19,0.0
20,0.0
21,0.0
22,0.0
1079,44.63000454163564
1080,44.26735772338582
1081,43.40421541532625
1082,46.07784873044206
1083,41.16661820456009
465,21.608585431852607
600,0.0
601,0.0
602,21.616933269680192
666,15.0
667,30.0
668,21.621031642694117
732,15.0
733,30.0
734,21.671291017013257
798,15.0
799,30.0
800,21.518006980862136
864,15.0
865,30.0
866,21.80614286042172
930,15.0
931,30.0
2,1, 6, 1, 0, 7, 0.00,15.00,Wednesday
7,20.65
18,0.0
19,0.0
20,0.0
21,0.0
22,0.0
1079,42.27789899875736
1080,40.8286314227553
1081,39.80344704439996
1082,43.657238323318566
1083,39.20981590343523
465,21.613252047226062
600,0.0
601,0.0
602,21.75610285962125
666,15.0
667,30.0
668,21.824793824571277
732,15.0
733,30.0
734,21.888909155367518
798,15.0
799,30.0
800,21.660900287221157
864,15.0
865,30.0
866,21.91580905742184
930,15.0
931,30.0
2,1, 6, 1, 0, 7,15.00,30.00,Wednesday
7,20.3
18,0.0
19,0.0
20,0.0
21,0.0
22,0.0
1079,39.823602050372365
1080,37.25752492660459
1081,36.24901751997445
1082,41.07660314843188
1083,37.171121577934734
465,21.64284459699833
600,0.0
601,0.0
602,21.910992882745628
666,15.0
667,30.0
668,22.056896100288444
732,15.0
733,30.0
734,22.125426646856813
798,15.0
799,30.0
800,21.82156338172389
864,15.0
865,30.0
866,22.04580697953516
930,15.0
931,30.0
2,1, 6, 1, 0, 7,30.00,45.00,Wednesday
7,19.950000000000003
18,0.0
19,0.0
20,0.0
21,0.0
22,0.0
1079,37.447050621445214
1080,33.69043126561429
1081,32.8442812040299
1082,38.55202477106002
1083,35.15110243084095
465,21.692678249031474
600,0.0
601,0.0
602,22.065130043803077
666,15.0
667,30.0
668,22.295939549874152
732,15.0
733,30.0
734,22.357920410502857
798,15.0
799,30.0
800,21.982393668612673
864,15.0
865,30.0
866,22.17984528065474
930,15.0
931,30.0
2,1, 6, 1, 0, 7,45.00,60.00,Wednesday
7,19.6
18,0.0
19,0.0
20,0.0
21,0.0
22,0.0
1079,34.71149202182542
1080,29.620068143355212
1081,29.063689747520726
1082,35.70131109871495
1083,32.79701181396058
465,21.771613905864086
600,0.0
601,0.0
602,22.229166023075635
666,15.0
667,30.0
668,22.565304686243394
732,15.0
733,30.0
734,22.609850904832644
798,15.0
799,30.0
800,22.151300737983302
864,15.0
865,30.0
866,22.32227689357579
930,15.0
931,30.0
2,1, 6, 1, 0, 8, 0.00,15.00,Wednesday
7,20.325000000000003
18,0.0
19,0.0
20,0.0
21,0.0
22,0.0
1079,32.3602225063003
1080,26.386405325684308
1081,26.185156620713926
1082,33.32935767857376
1083,31.069811738576405
465,21.86570344559535
600,0.0
601,0.0
602,22.34887572858348
666,15.0
667,30.0
668,22.761055443118046
732,15.0
733,30.0
734,22.781258967522056
798,15.0
799,30.0
800,22.271514164554034
864,15.0
865,30.0
866,22.40906538599991
930,15.0
931,30.0
2,1, 6, 1, 0, 8,15.00,30.00,Wednesday
7,21.05
18,0.0
19,0.0
20,0.0
21,0.0
22,0.0
1079,29.033756869045078
1080,21.85383025697068
1081,22.152774135562936
1082,29.97585402274234
1083,28.473031339277725
465,22.023796015338974
600,0.0
601,0.0
602,22.605456810523528
666,15.0
667,30.0
668,23.178112526722444
732,15.0
733,30.0
734,23.153336081210767
798,15.0
799,30.0
800,22.526488026353753
864,15.0
865,30.0
866,22.61613087583256
930,15.0
931,30.0
2,1, 6, 1, 0, 8,30.00,45.00,Wednesday
7,21.775
18,0.0
19,0.0
20,0.0
21,0.0
22,0.0
1079,26.42110508119987
1080,18.552079232982322
1081,19.263153590417218
1082,27.343225374350865
1083,26.417835881807278
465,22.199379367300672
600,0.0
601,0.0
602,22.811941252883965
666,15.0
667,30.0
668,23.509581927001086
732,15.0
733,30.0
734,23.439995258760234
798,15.0
799,30.0
800,22.729689427787974
864,15.0
865,30.0
866,22.786610255027497
930,15.0
931,30.0
2,1, 6, 1, 0, 8,45.00,60.00,Wednesday
7,22.5
18,0.0
19,0.0
20,0.0
21,0.0
22,0.0
1079,24.221134819081627
1080,15.904370536311802
1081,17.091774343819452
1082,25.142784336921068
1083,24.73362502687789
465,22.400005587153938
600,0.0
601,0.0
602,22.993104944782512
666,15.0
667,30.0
668,23.804031753898318
732,15.0
733,30.0
734,23.673142998999506
798,15.0
799,30.0
800,22.907555961612818
864,15.0
865,30.0
866,22.929695438419543
930,15.0
931,30.0
2,1, 6, 1, 0, 9, 0.00,15.00,Wednesday
7,23.25
18,11.0
19,5.0
20,11.0
21,5.0
22,20.0
1079,12.05697905706053
1080,8.86368164340324
1081,9.502686857837901
1082,12.60916497572731
1083,13.911446396472996
465,23.582587075740992
600,0.0
601,0.0
602,24.524146310053762
666,24.000000000000004
667,25.0
668,24.77229970599937
732,24.000000000000004
733,25.0
734,24.70485868167679
798,24.000000000000004
799,25.0
800,24.430109759416048
864,24.000000000000004
865,25.0
866,24.181583659152814
930,24.000000000000004
931,25.0
2,1, 6, 1, 0, 9,15.00,30.00,Wednesday
7,24.0
18,11.0
19,5.0
20,11.0
21,5.0
22,20.0
1079,8.958527882828548
1080,7.078630396152846
1081,7.446511984987026
1082,9.078955904876167
1083,9.713074800141612
465,24.149867527491907
600,0.0
601,0.0
602,24.873990294798286
666,24.0
667,24.999999999999996
668,24.99645748357986
732,24.0
733,24.999999999999996
734,24.997350080479386
798,24.0
799,24.999999999999996
800,24.84318042106875
864,24.0
865,24.999999999999996
866,24.78759097608903
930,24.0
931,24.999999999999996
2,1, 6, 1, 0, 9,30.00,45.00,Wednesday
7,24.75
18,11.0
19,5.0
20,11.0
21,5.0
22,20.0
1079,7.9372272795027925
1080,6.600430272683582
1081,7.008751850898676
1082,7.9271013915481205
1083,8.55213193135667
465,24.63888836461424
600,0.0
601,0.0
602,24.99610796018017
666,24.0
667,25.0
668,24.998082413307195
732,24.0
733,25.0
734,24.998313550417915
798,24.0
799,25.0
800,24.995515121381644
864,24.0
865,25.0
866,24.995911425468297
930,24.0
931,25.0
2,1, 6, 1, 0, 9,45.00,60.00,Wednesday
7,25.5
18,11.0
19,5.0
20,11.0
21,5.0
22,20.0
1079,7.456751989101164
1080,6.296077512425299
1081,6.72272677886636
1082,7.428479386366902
1083,8.103171742126804
465,25.227951350371292
600,0.0
601,0.0
602,24.998151187980024
666,24.0
667,25.0
668,24.997828891804332
732,24.0
733,25.0
734,24.998013640396355
798,24.0
799,25.0
800,24.99808861343591
864,24.0
865,25.0
866,24.9982742210775
930,24.0
931,25.0
2,1, 6, 1, 0,10, 0.00,15.00,Wednesday
7,25.8
18,11.0
19,5.0
20,11.0
21,5.0
22,20.0
1079,7.093183839075124
1080,6.057064302960171
1081,6.515043210309557
1082,7.05874465715317
1083,7.721322441563572
465,25.574008337172366
600,0.0
601,0.0
602,24.99758623830904
666,24.0
667,25.0
668,24.99754389935407
732,24.0
733,25.0
734,24.99760770100786
798,24.0
799,25.0
800,24.997521401663725
864,24.0
865,25.0
866,24.997527054260683
930,24.0
931,25.0
2,1, 6, 1, 0,10,15.00,30.00,Wednesday
7,26.1
18,11.0
19,5.0
20,11.0
21,5.0
22,20.0
1079,6.970315602431782
1080,5.971241918322704
1081,6.482629165049659
1082,6.933515693038046
1083,7.616067873478471
465,25.917124398136004
600,0.0
601,0.0
602,24.99773067882933
666,24.0
667,25.0
668,24.99775539225396
732,24.0
733,25.0
734,24.997790575145714
798,24.0
799,25.0
800,24.99766886779735
864,24.0
865,25.0
866,24.99763489865866
930,24.0
931,25.0
2,1, 6, 1, 0,10,30.00,45.00,Wednesday
7,26.4
18,11.0
19,5.0
20,11.0
21,5.0
22,20.0
1079,6.867346093843878
1080,5.918630448544235
1081,6.469584869758307
1082,6.8304813134852935
1083,7.517832577759151
465,26.238635107328008
600,0.0
601,0.0
602,24.99781412449888
666,24.0
667,25.0
668,24.9978575089753
732,24.0
733,25.0
734,24.997888524021157
798,24.0
799,25.0
800,24.997752530244156
864,24.0
865,25.0
866,24.9977029437172
930,24.0
931,25.0
2,1, 6, 1, 0,10,45.00,60.00,Wednesday
7,26.7
18,11.0
19,5.0
20,11.0
21,5.0
22,20.0
1079,6.790115787663595
1080,5.880664056574929
1081,6.477551831722337
1082,6.7543631860379065
1083,7.44254939336804
465,26.543447060031
600,0.0
601,0.0
602,24.997809904886974
666,24.0
667,25.0
668,24.99785549655801
732,24.0
733,25.0
734,24.997890437702672
798,24.0
799,25.0
800,24.997747352534354
864,24.0
865,25.0
866,24.997684520885663
930,24.0
931,25.0
2,1, 6, 1, 0,11, 0.00,15.00,Wednesday
7,26.974999999999998
18,11.0
19,5.0
20,11.0
21,5.0
22,20.0
1079,6.688707466165312
1080,5.83030223018946
1081,6.453644325602156
1082,6.651697135006458
1083,7.336615299712719
465,26.862924182095192
600,0.0
601,0.0
602,24.99784747357148
666,24.0
667,25.0
668,24.99790169543891
732,24.0
733,25.0
734,24.99792889539276
798,24.0
799,25.0
800,24.997784292255908
864,24.0
865,25.0
866,24.99770609580976
930,24.0
931,25.0
2,1, 6, 1, 0,11,15.00,30.00,Wednesday
7,27.25
18,11.0
19,5.0
20,11.0
21,5.0
22,20.0
1079,6.630144126754516
1080,5.815841499722126
1081,6.4576212014814445
1082,6.592230421018684
1083,7.285119743539909
465,27.130621169809764
600,0.0
601,0.0
602,24.996316990736794
666,24.0
667,25.0
668,24.99651632324241
732,24.0
733,25.0
734,24.996508118065737
798,24.0
799,25.0
800,24.996246266298428
864,24.0
865,25.0
866,24.99585103653291
930,24.0
931,25.0
2,1, 6, 1, 0,11,30.00,45.00,Wednesday
7,27.525000000000002
18,11.0
19,5.0
20,11.0
21,5.0
22,20.0
1079,6.601825847815974
1080,5.8313279894313155
1081,6.464979905560696
1082,6.564614122659151
1083,7.266101013164416
465,27.340937274659648
600,0.0
601,0.0
602,24.996173279724196
666,24.0
667,25.0
668,24.99636574215563
732,24.0
733,25.0
734,24.996365772979786
798,24.0
799,25.0
800,24.996094836729593
864,24.0
865,25.0
866,24.995693785011557
930,24.0
931,25.0
2,1, 6, 1, 0,11,45.00,60.00,Wednesday
7,27.8
18,11.0
19,5.0
20,11.0
21,5.0
22,20.0
1079,6.575042883622075
1080,5.8550286873782795
1081,6.45891905829599
1082,6.539525493441872
1083,7.245894775292342
465,27.542356530845755
600,0.0
601,0.0
602,24.996240078875367
666,24.0
667,25.0
668,24.996410040876107
732,24.0
733,25.0
734,24.996389890338243
798,24.0
799,25.0
800,24.996163100535586
864,24.0
865,25.0
866,24.995762419504704
930,24.0
931,25.0
2,1, 6, 1, 0,12, 0.00,15.00,Wednesday
7,28.1
18,8.8
19,4.0
20,8.8
21,4.0
22,16.0
1079,6.645621790382975
1080,5.96338074691279
1081,6.54977301980189
1082,6.613145421559878
1083,7.344744500972226
465,27.7675713664198
600,0.0
601,0.0
602,24.99626151649318
666,24.0
667,25.0
668,24.99634712194138
732,24.0
733,25.0
734,24.996364304502823
798,24.0
799,25.0
800,24.996190842675265
864,24.0
865,25.0
866,24.995875890475016
930,24.0
931,25.0
2,1, 6, 1, 0,12,15.00,30.00,Wednesday
7,28.4
18,8.8
19,4.0
20,8.8
21,4.0
22,16.0
1079,6.685850381247121
1080,6.0586419632336685
1081,6.6106895417140805
1082,6.656595107205746
1083,7.398991817594052
465,27.987316164139962
600,0.0
601,0.0
602,24.9963741352203
666,24.0
667,25.0
668,24.996480405092097
732,24.0
733,25.0
734,24.99645849241495
798,24.0
799,25.0
800,24.996311269461046
864,24.0
865,25.0
866,24.995973674859503
930,24.0
931,25.0
2,1, 6, 1, 0,12,30.00,45.00,Wednesday
7,28.7
18,8.8
19,4.0
20,8.8
21,4.0
22,16.0
1079,6.722647742523321
1080,6.160634572945185
1081,6.666828717688915
1082,6.69717498658828
1083,7.45932561110024
465,28.19035296364684
600,0.0
601,0.0
602,24.99653306940053
666,24.0
667,25.0
668,24.996680767421264
732,24.0
733,25.0
734,24.9966059892028
798,24.0
799,25.0
800,24.9964787001886
864,24.0
865,25.0
866,24.996104214022022
930,24.0
931,25.0
2,1, 6, 1, 0,12,45.00,60.00,Wednesday
7,29.0
18,8.8
19,4.0
20,8.8
21,4.0
22,16.0
1079,6.750046769382962
1080,6.263621810074085
1081,6.711383064808473
1082,6.728912648712594
1083,7.51471482867251
465,28.37992936254572
600,0.0
601,0.0
602,24.99665417819933
666,24.0
667,25.0
668,24.99682721659876
732,24.0
733,25.0
734,24.99671627121508
798,24.0
799,25.0
800,24.996605667282758
864,24.0
865,25.0
866,24.996208569799684
930,24.0
931,25.0
2,1, 6, 1, 0,13, 0.00,15.00,Wednesday
7,29.125
18,4.4
19,2.0
20,4.4
21,2.0
22,8.0
1079,7.0015039538511985
1080,6.581716524940575
1081,6.98668852990032
1082,6.994579993308648
1083,7.824159495097533
465,28.58241265590776
600,0.0
601,0.0
602,24.996997171831122
666,24.0
667,25.0
668,24.99711775365781
732,24.0
733,25.0
734,24.99704622531142
798,24.0
799,25.0
800,24.996966283020658
864,24.0
865,25.0
866,24.99670600214149
930,24.0
931,25.0
2,1, 6, 1, 0,13,15.00,30.00,Wednesday
7,29.25
18,4.4
19,2.0
20,4.4
21,2.0
22,8.0
1079,7.107928184368333
1080,6.7790868254895
1081,7.115492505702846
1082,7.116164486069181
1083,7.943801198135347
465,28.774613107784305
600,0.0
601,0.0
602,24.997525591901795
666,24.0
667,25.0
668,24.997698695879034
732,24.0
733,25.0
734,24.997569791874916
798,24.0
799,25.0
800,24.99750929969034
864,24.0
865,25.0
866,24.997159365566944
930,24.0
931,25.0
2,1, 6, 1, 0,13,30.00,45.00,Wednesday
7,29.375
18,4.4
19,2.0
20,4.4
21,2.0
22,8.0
1079,7.173235171898497
1080,6.916117497123949
1081,7.203392638365827
1082,7.194441437673461
1083,8.042060324925231
465,28.944709808857368
600,0.0
601,0.0
602,24.998070268664023
666,24.0
667,25.0
668,24.998270693836645
732,24.0
733,25.0
734,24.998106433271246
798,24.0
799,25.0
800,24.998062761453472
864,24.0
865,25.0
866,24.997628766886105
930,24.0
931,25.0
2,1, 6, 1, 0,13,45.00,60.00,Wednesday
7,29.5
18,4.4
19,2.0
20,4.4
21,2.0
22,8.0
1079,7.169331326922631
1080,6.955308957845546
1081,7.221021057568009
1082,7.157605396062635
1083,8.06862086136637
465,29.096869018927887
600,0.0
601,0.0
602,24.99849455495367
666,24.0
667,25.0
668,24.998679885675937
732,24.0
733,25.0
734,24.998521295036944
798,24.0
799,25.0
800,24.998476857769273
864,24.0
865,25.0
866,24.99802006855412
930,24.0
931,25.0
2,1, 6, 1, 0,14, 0.00,15.00,Wednesday
7,29.6
18,8.8
19,4.0
20,8.8
21,4.0
22,16.0
1079,6.920289247528217
1080,6.755123762558512
1081,6.9824874827555306
1082,6.839933682189226
1083,7.812583021611843
465,29.16291976485779
600,0.0
601,0.0
602,24.998820507442428
666,24.0
667,25.0
668,24.998996051524077
732,24.0
733,25.0
734,24.998833699752108
798,24.0
799,25.0
800,24.99878188095927
864,24.0
865,25.0
866,24.998229944184455
930,24.0
931,25.0
2,1, 6, 1, 0,14,15.00,30.00,Wednesday
7,29.7
18,8.8
19,4.0
20,8.8
21,4.0
22,16.0
1079,6.745482163225134
1080,6.62746993869068
1081,6.822164765885958
1082,6.595499721042842
1083,7.6589840502064845
465,29.247876338123277
600,0.0
601,0.0
602,24.998793787847806
666,24.0
667,25.0
668,24.998902838743543
732,24.0
733,25.0
734,24.998800626157966
798,24.0
799,25.0
800,24.99872558182503
864,24.0
865,25.0
866,24.99829593091327
930,24.0
931,25.0
2,1, 6, 1, 0,14,30.00,45.00,Wednesday
7,29.799999999999997
18,8.8
19,4.0
20,8.8
21,4.0
22,16.0
1079,6.594761727475515
1080,6.521537890731523
1081,6.686911341626427
1082,6.383479391837341
1083,7.507525944371636
465,29.350872868088747
600,0.0
601,0.0
602,24.998593342014544
666,24.0
667,25.0
668,24.99864203592856
732,24.0
733,25.0
734,24.99859983843777
798,24.0
799,25.0
800,24.998492677525515
864,24.0
865,25.0
866,24.998201708208676
930,24.0
931,25.0
2,1, 6, 1, 0,14,45.00,60.00,Wednesday
7,29.9
18,8.8
19,4.0
20,8.8
21,4.0
22,16.0
1079,6.465745406655358
1080,6.433649085671064
1081,6.572653302802308
1082,6.2013422334885036
1083,7.36764766303979
465,29.445525086607063
600,0.0
601,0.0
602,24.99842852287539
666,24.0
667,25.0
668,24.99843920752852
732,24.0
733,25.0
734,24.99843500847622
798,24.0
799,25.0
800,24.998305411554703
864,24.0
865,25.0
866,24.998106309801738
930,24.0
931,25.0
2,1, 6, 1, 0,15, 0.00,15.00,Wednesday
7,30.025
18,11.0
19,5.0
20,11.0
21,5.0
22,20.0
1079,6.252478164865067
1080,6.251903475011659
1081,6.364682170046137
1082,5.95000589898072
1083,7.11363506232172
465,29.563036882264136
600,0.0
601,0.0
602,24.99835429946695
666,24.0
667,25.0
668,24.998340711413512
732,24.0
733,25.0
734,24.99835619752919
798,24.0
799,25.0
800,24.99822203708321
864,24.0
865,25.0
866,24.998049535394983
930,24.0
931,25.0
2,1, 6, 1, 0,15,15.00,30.00,Wednesday
7,30.15
18,11.0
19,5.0
20,11.0
21,5.0
22,20.0
1079,6.104489204402199
1080,6.130323505829665
1081,6.2234178211779465
1082,5.771077913448465
1083,6.944716117391025
465,29.64349782056362
600,0.0
601,0.0
602,24.998237734039133
666,24.0
667,25.0
668,24.99820634988853
732,24.0
733,25.0
734,24.998236802826753
798,24.0
799,25.0
800,24.998099475087752
864,24.0
865,25.0
866,24.99795154326931
930,24.0
931,25.0
2,1, 6, 1, 0,15,30.00,45.00,Wednesday
7,30.275
18,11.0
19,5.0
20,11.0
21,5.0
22,20.0
1079,5.977914159058329
1080,6.023766789929084
1081,6.101755083082722
1082,5.620366209903764
1083,6.790338470998705
465,29.7011425537495
600,0.0
601,0.0
602,24.99809783748284
666,24.0
667,25.0
668,24.998052090136298
732,24.0
733,25.0
734,24.998094942047473
798,24.0
799,25.0
800,24.997954429340343
864,24.0
865,25.0
866,24.997820522930553
930,24.0
931,25.0
2,1, 6, 1, 0,15,45.00,60.00,Wednesday
7,30.4
18,11.0
19,5.0
20,11.0
21,5.0
22,20.0
1079,5.873296934214238
1080,5.934300554474248
1081,6.001526493366839
1082,5.488552675590782
1083,6.658251101496575
465,29.751101485064854
600,0.0
601,0.0
602,24.997996618806884
666,24.0
667,25.0
668,24.997940065957962
732,24.0
733,25.0
734,24.997991018795087
798,24.0
799,25.0
800,24.99785553013797
864,24.0
865,25.0
866,24.997713941179285
930,24.0
931,25.0
2,1, 6, 1, 0,16, 0.00,15.00,Wednesday
7,30.275
18,11.0
19,5.0
20,11.0
21,5.0
22,20.0
1079,5.817688770188383
1080,5.893345495687285
1081,5.955107586468401
1082,5.413677425552109
1083,6.568535976710166
465,29.849031167582883
600,0.0
601,0.0
602,24.997852023768576
666,24.0
667,25.0
668,24.997791209949227
732,24.0
733,25.0
734,24.99785308057878
798,24.0
799,25.0
800,24.99769585453078
864,24.0
865,25.0
866,24.997608255968213
930,24.0
931,25.0
2,1, 6, 1, 0,16,15.00,30.00,Wednesday
7,30.15
18,11.0
19,5.0
20,11.0
21,5.0
22,20.0
1079,5.766831154417844
1080,5.8534136553932825
1081,5.9092890257875155
1082,5.347970032859024
1083,6.478559464885322
465,29.910363700424124
600,0.0
601,0.0
602,24.99773225160291
666,24.0
667,25.0
668,24.997667840168553
732,24.0
733,25.0
734,24.997732771511092
798,24.0