Program Version,EnergyPlus, Version 23.2.0-7636e6b3e9, YMD=2025.09.22 22:36
1,5,Environment Title[],Latitude[deg],Longitude[deg],Time Zone[],Elevation[m]
2,8,Day of Simulation[],Month[],Day of Month[],DST Indicator[1=yes 0=no],Hour[],StartMinute[],EndMinute[],DayType
3,5,Cumulative Day of Simulation[],Month[],Day of Month[],DST Indicator[1=yes 0=no],DayType  ! When Daily Meters Requested
4,2,Cumulative Days of Simulation[],Month[]  ! When Monthly Meters Requested
5,1,Cumulative Days of Simulation[] ! When Run Period Meters Requested
6,1,Calendar Year of Simulation[] ! When Annual Meters Requested
24,1,Electricity:Facility [J] !TimeStep
36,1,Electricity:Building [J] !TimeStep
72,1,InteriorLights:Electricity [J] !TimeStep
1207,1,Electricity:HVAC [J] !TimeStep
1270,1,Electricity:Plant [J] !TimeStep
29,11,Electricity:Facility [J] !RunPeriod [Value,Min,Month,Day,Hour,Minute,Max,Month,Day,Hour,Minute]
41,11,Electricity:Building [J] !RunPeriod [Value,Min,Month,Day,Hour,Minute,Max,Month,Day,Hour,Minute]
77,11,InteriorLights:Electricity [J] !RunPeriod [Value,Min,Month,Day,Hour,Minute,Max,Month,Day,Hour,Minute]
1212,11,Electricity:HVAC [J] !RunPeriod [Value,Min,Month,Day,Hour,Minute,Max,Month,Day,Hour,Minute]
1275,11,Electricity:Plant [J] !RunPeriod [Value,Min,Month,Day,Hour,Minute,Max,Month,Day,Hour,Minute]
End of Data Dictionary
1,RUN PERIOD 2,  36.60, 117.05,   8.00, 215.00
2,1, 6, 1, 0, 1, 0.00,15.00,Wednesday
24,4661883.950440934
36,427500.0
72,337500.0
1207,592840.2253004119
1270,3641543.725140522
2,1, 6, 1, 0, 1,15.00,30.00,Wednesday
24,4660383.999575077
36,427500.0
72,337500.0
1207,592840.2253004119
1270,3640043.7742746645
2,1, 6, 1, 0, 1,30.00,45.00,Wednesday
24,4658681.355488433
36,427500.0
72,337500.0
1207,592840.2253004119
1270,3638341.1301880204
2,1, 6, 1, 0, 1,45.00,60.00,Wednesday
24,4656835.629523086
36,427500.0
72,337500.0
1207,592840.2253004119
1270,3636495.4042226737
2,1, 6, 1, 0, 2, 0.00,15.00,Wednesday
24,4656779.232387009
36,427500.0
72,337500.0
1207,592840.2253004119
1270,3636439.007086597
2,1, 6, 1, 0, 2,15.00,30.00,Wednesday
24,4656719.258883436
36,427500.0
72,337500.0
1207,592840.2253004119
1270,3636379.033583024
2,1, 6, 1, 0, 2,30.00,45.00,Wednesday
24,4656655.776928991
36,427500.0
72,337500.0
1207,592840.2253004119
1270,3636315.551628579
2,1, 6, 1, 0, 2,45.00,60.00,Wednesday
24,4656588.8275676705
36,427500.0
72,337500.0
1207,592840.2253004119
1270,3636248.602267258
2,1, 6, 1, 0, 3, 0.00,15.00,Wednesday
24,4656337.966114882
36,427500.0
72,337500.0
1207,592840.2253004119
1270,3635997.74081447
2,1, 6, 1, 0, 3,15.00,30.00,Wednesday
24,4656086.894459372
36,427500.0
72,337500.0
1207,592840.2253004119
1270,3635746.6691589598
2,1, 6, 1, 0, 3,30.00,45.00,Wednesday
24,4655835.7161594825
36,427500.0
72,337500.0
1207,592840.2253004119
1270,3635495.4908590703
2,1, 6, 1, 0, 3,45.00,60.00,Wednesday
24,4655584.481778615
36,427500.0
72,337500.0
1207,592840.2253004119
1270,3635244.2564782025
2,1, 6, 1, 0, 4, 0.00,15.00,Wednesday
24,4655316.583482523
36,427500.0
72,337500.0
1207,592840.2253004119
1270,3634976.3581821113
2,1, 6, 1, 0, 4,15.00,30.00,Wednesday
24,4655046.563134102
36,427500.0
72,337500.0
1207,592840.2253004119
1270,3634706.33783369
2,1, 6, 1, 0, 4,30.00,45.00,Wednesday
24,4654774.461661026
36,427500.0
72,337500.0
1207,592840.2253004119
1270,3634434.2363606133
2,1, 6, 1, 0, 4,45.00,60.00,Wednesday
24,4654500.35447561
36,427500.0
72,337500.0
1207,592840.2253004119
1270,3634160.129175198
2,1, 6, 1, 0, 5, 0.00,15.00,Wednesday
24,4654356.596382825
36,427500.0
72,337500.0
1207,592840.2253004119
1270,3634016.3710824125
2,1, 6, 1, 0, 5,15.00,30.00,Wednesday
24,4654183.581400552
36,427500.0
72,337500.0
1207,592840.2253004119
1270,3633843.3561001397
2,1, 6, 1, 0, 5,30.00,45.00,Wednesday
24,4653980.951485281
36,427500.0
72,337500.0
1207,592840.2253004119
1270,3633640.7261848687
2,1, 6, 1, 0, 5,45.00,60.00,Wednesday
24,4653748.384529741
36,427500.0
72,337500.0
1207,592840.2253004119
1270,3633408.159229328
2,1, 6, 1, 0, 6, 0.00,15.00,Wednesday
24,4653785.452504678
36,427500.0
72,337500.0
1207,592840.2253004119
1270,3633445.227204265
2,1, 6, 1, 0, 6,15.00,30.00,Wednesday
24,4653760.759711962
36,427500.0
72,337500.0
1207,592840.2253004119
1270,3633420.53441155
2,1, 6, 1, 0, 6,30.00,45.00,Wednesday
24,4653671.662452876
36,427500.0
72,337500.0
1207,592840.2253004119
1270,3633331.437152463
2,1, 6, 1, 0, 6,45.00,60.00,Wednesday
24,4653515.743082496
36,427500.0
72,337500.0
1207,592840.2253004119
1270,3633175.5177820837
2,1, 6, 1, 0, 7, 0.00,15.00,Wednesday
24,4653587.062590277
36,427500.0
72,337500.0
1207,592840.2253004119
1270,3633246.8372898647
2,1, 6, 1, 0, 7,15.00,30.00,Wednesday
24,4653627.049362326
36,427500.0
72,337500.0
1207,592840.2253004119
1270,3633286.824061914
2,1, 6, 1, 0, 7,30.00,45.00,Wednesday
24,4653636.604782116
36,427500.0
72,337500.0
1207,592840.2253004119
1270,3633296.3794817035
2,1, 6, 1, 0, 7,45.00,60.00,Wednesday
24,4653616.564814704
36,427500.0
72,337500.0
1207,592840.2253004119
1270,3633276.339514291
2,1, 6, 1, 0, 8, 0.00,15.00,Wednesday
24,4653913.002012175
36,427500.0
72,337500.0
1207,592840.2253004119
1270,3633572.776711762
2,1, 6, 1, 0, 8,15.00,30.00,Wednesday
24,4654105.007693224
36,427500.0
72,337500.0
1207,592840.2253004119
1270,3633764.7823928115
2,1, 6, 1, 0, 8,30.00,45.00,Wednesday
24,4654183.758154155
36,427500.0
72,337500.0
1207,592840.2253004119
1270,3633843.5328537426
2,1, 6, 1, 0, 8,45.00,60.00,Wednesday
24,4654141.024368109
36,427500.0
72,337500.0
1207,592840.2253004119
1270,3633800.799067697
2,1, 6, 1, 0, 9, 0.00,15.00,Wednesday
24,15216493.565241015
36,7875000.0
72,6075000.0
1207,675888.5766458862
1270,6665604.98859513
2,1, 6, 1, 0, 9,15.00,30.00,Wednesday
24,12128159.449625596
36,7875000.0
72,6075000.0
1207,618594.1832762572
1270,3634565.2663493403
2,1, 6, 1, 0, 9,30.00,45.00,Wednesday
24,12144683.076928677
36,7875000.0
72,6075000.0
1207,634878.4728927759
1270,3634804.6040359014
2,1, 6, 1, 0, 9,45.00,60.00,Wednesday
24,12154555.665946184
36,7875000.0
72,6075000.0
1207,644618.645408368
1270,3634937.020537816
2,1, 6, 1, 0,10, 0.00,15.00,Wednesday
24,15101719.978059303
36,10462500.0
72,6412500.0
1207,712935.8549294306
1270,3926284.1231298735
2,1, 6, 1, 0,10,15.00,30.00,Wednesday
24,15273353.380400399
36,10462500.0
72,6412500.0
1207,722017.2373056697
1270,4088836.143094729
2,1, 6, 1, 0,10,30.00,45.00,Wednesday
24,15384634.078838922
36,10462500.0
72,6412500.0
1207,728357.2229125464
1270,4193776.855926376
2,1, 6, 1, 0,10,45.00,60.00,Wednesday
24,15485632.399052588
36,10462500.0
72,6412500.0
1207,733666.5774088453
1270,4289465.821643746
2,1, 6, 1, 0,11, 0.00,15.00,Wednesday
24,15927715.05832517
36,10800000.0
72,6750000.0
1207,739950.8317159759
1270,4387764.226609196
2,1, 6, 1, 0,11,15.00,30.00,Wednesday
24,16022267.223017434
36,10800000.0
72,6750000.0
1207,744977.4096017175
1270,4477289.813415716
2,1, 6, 1, 0,11,30.00,45.00,Wednesday
24,16099121.912814872
36,10800000.0
72,6750000.0
1207,748205.6862564911
1270,4550916.226558383
2,1, 6, 1, 0,11,45.00,60.00,Wednesday
24,16177812.182572298
36,10800000.0
72,6750000.0
1207,751727.9754250458
1270,4626084.207147253
2,1, 6, 1, 0,12, 0.00,15.00,Wednesday
24,15721828.123438898
36,10462500.0
72,6412500.0
1207,730984.7827439362
1270,4528343.340694962
2,1, 6, 1, 0,12,15.00,30.00,Wednesday
24,15771244.392496241
36,10462500.0
72,6412500.0
1207,731576.0239379595
1270,4577168.368558281
2,1, 6, 1, 0,12,30.00,45.00,Wednesday
24,15837431.109810969
36,10462500.0
72,6412500.0
1207,733128.6507186333
1270,4641802.459092336
2,1, 6, 1, 0,12,45.00,60.00,Wednesday
24,15903034.328976694
36,10462500.0
72,6412500.0
1207,734645.1796643101
1270,4705889.149312385
2,1, 6, 1, 0,13, 0.00,15.00,Wednesday
24,14501360.281497777
36,9450000.0
72,5400000.0
1207,693335.3200632962
1270,4358024.961434483
2,1, 6, 1, 0,13,15.00,30.00,Wednesday
24,14472857.101642167
36,9450000.0
72,5400000.0
1207,690714.4082150881
1270,4332142.693427079
2,1, 6, 1, 0,13,30.00,45.00,Wednesday
24,14490523.249957424
36,9450000.0
72,5400000.0
1207,690504.5254920297
1270,4350018.724465395
2,1, 6, 1, 0,13,45.00,60.00,Wednesday
24,14522215.75049067
36,9450000.0
72,5400000.0
1207,691419.4589752171
1270,4380796.291515452
2,1, 6, 1, 0,14, 0.00,15.00,Wednesday
24,15653470.363984358
36,10125000.0
72,6075000.0
1207,732982.3463728437
1270,4795488.017611517
2,1, 6, 1, 0,14,15.00,30.00,Wednesday
24,15752363.017938102
36,10125000.0
72,6075000.0
1207,739763.5277977684
1270,4887599.490140334
2,1, 6, 1, 0,14,30.00,45.00,Wednesday
24,15806323.49111277
36,10125000.0
72,6075000.0
1207,743437.5211250158
1270,4937885.969987756
2,1, 6, 1, 0,14,45.00,60.00,Wednesday
24,15860133.867513105
36,10125000.0
72,6075000.0
1207,747155.6862621547
1270,4987978.18125095
2,1, 6, 1, 0,15, 0.00,15.00,Wednesday
24,16230600.68095096
36,10350000.0
72,6750000.0
1207,761356.4065668259
1270,5119244.2743841335
2,1, 6, 1, 0,15,15.00,30.00,Wednesday
24,16317453.471612664
36,10350000.0
72,6750000.0
1207,768269.4279585965
1270,5199184.043654068
2,1, 6, 1, 0,15,30.00,45.00,Wednesday
24,16388506.897063356
36,10350000.0
72,6750000.0
1207,773873.1103419603
1270,5264633.786721396
2,1, 6, 1, 0,15,45.00,60.00,Wednesday
24,16454652.5056603
36,10350000.0
72,6750000.0
1207,779119.0192675983
1270,5325533.486392702
2,1, 6, 1, 0,16, 0.00,15.00,Wednesday
24,15865531.559885172
36,9900000.0
72,6750000.0
1207,763225.5925211927
1270,5202305.967363981
2,1, 6, 1, 0,16,15.00,30.00,Wednesday
24,15856966.267884074
36,9900000.0
72,6750000.0
1207,764931.2029200781
1270,5192035.064963998
2,1, 6, 1, 0,16,30.00,45.00,Wednesday
24,15852157.321353892
36,9900000.0
72,6750000.0
1207,766320.6599263286
1270,5185836.661427564
2,1, 6, 1, 0,16,45.00,60.00,Wednesday
24,15838632.845817674
36,9900000.0
72,6750000.0
1207,766803.2019597979
1270,5171829.643857877
2,1, 6, 1, 0,17, 0.00,15.00,Wednesday
24,14618818.428935338
36,9000000.0
72,6750000.0
1207,732637.8933721362
1270,4886180.535563201
2,1, 6, 1, 0,17,15.00,30.00,Wednesday
24,14571191.01549378
36,9000000.0
72,6750000.0
1207,730738.9777951026
1270,4840452.03769868
2,1, 6, 1, 0,17,30.00,45.00,Wednesday
24,14510413.730648646
36,9000000.0
72,6750000.0
1207,726211.6318667841
1270,4784202.09878186
2,1, 6, 1, 0,17,45.00,60.00,Wednesday
24,14440832.226765558
36,9000000.0
72,6750000.0
1207,721209.2162089732
1270,4719623.010556585
2,1, 6, 1, 0,18, 0.00,15.00,Wednesday
24,14361752.974175317
36,9000000.0
72,6750000.0
1207,715881.932541047
1270,4645871.041634271
2,1, 6, 1, 0,18,15.00,30.00,Wednesday
24,14274273.07345957
36,9000000.0
72,6750000.0
1207,710040.2654522348
1270,4564232.808007336
2,1, 6, 1, 0,18,30.00,45.00,Wednesday
24,14148557.223061256
36,9000000.0
72,6750000.0
1207,701200.4671241844
1270,4447356.755937073
2,1, 6, 1, 0,18,45.00,60.00,Wednesday
24,14027550.11800094
36,9000000.0
72,6750000.0
1207,692967.5513880537
1270,4334582.566612886
2,1, 6, 1, 0,19, 0.00,15.00,Wednesday
24,9669424.166180545
36,5400000.0
72,4050000.0
1207,627948.9942942408
1270,3641475.171886305
2,1, 6, 1, 0,19,15.00,30.00,Wednesday
24,9658622.374007665
36,5400000.0
72,4050000.0
1207,618651.966238889
1270,3639970.4077687766
2,1, 6, 1, 0,19,30.00,45.00,Wednesday
24,9653511.259208394
36,5400000.0
72,4050000.0
1207,613600.8820894938
1270,3639910.3771189013
2,1, 6, 1, 0,19,45.00,60.00,Wednesday
24,9651374.912062472
36,5400000.0
72,4050000.0
1207,611551.7273443642
1270,3639823.1847181073
2,1, 6, 1, 0,20, 0.00,15.00,Wednesday
24,8294297.058708394
36,4050000.0
72,2700000.0
1207,604587.3275036286
1270,3639709.731204764
2,1, 6, 1, 0,20,15.00,30.00,Wednesday
24,8291351.413823374
36,4050000.0
72,2700000.0
1207,601780.3697970926
1270,3639571.0440262808
2,1, 6, 1, 0,20,30.00,45.00,Wednesday
24,8289399.916828297
36,4050000.0
72,2700000.0
1207,599991.7553767645
1270,3639408.161451532
2,1, 6, 1, 0,20,45.00,60.00,Wednesday
24,8287755.391667405
36,4050000.0
72,2700000.0
1207,598533.2866656736
1270,3639222.105001732
2,1, 6, 1, 0,21, 0.00,15.00,Wednesday
24,8286532.385837347
36,4050000.0
72,2700000.0
1207,597336.9237015025
1270,3639195.462135844
2,1, 6, 1, 0,21,15.00,30.00,Wednesday
24,8285416.356766889
36,4050000.0
72,2700000.0
1207,596277.2818237087
1270,3639139.07494318
2,1, 6, 1, 0,21,30.00,45.00,Wednesday
24,8284397.743736734
36,4050000.0
72,2700000.0
1207,595343.8655457569
1270,3639053.878190975
2,1, 6, 1, 0,21,45.00,60.00,Wednesday
24,8283635.294225305
36,4050000.0
72,2700000.0
1207,594694.3533080978
1270,3638940.940917208
2,1, 6, 1, 0,22, 0.00,15.00,Wednesday
24,4659581.502920331
36,427500.0
72,337500.0
1207,592840.2253004119
1270,3639241.277619919
2,1, 6, 1, 0,22,15.00,30.00,Wednesday
24,4659879.950136529
36,427500.0
72,337500.0
1207,592840.2253004119
1270,3639539.7248361167
2,1, 6, 1, 0,22,30.00,45.00,Wednesday
24,4660176.451256159
36,427500.0
72,337500.0
1207,592840.2253004119
1270,3639836.2259557466
2,1, 6, 1, 0,22,45.00,60.00,Wednesday
24,4660470.969974806
36,427500.0
72,337500.0
1207,592840.2253004119
1270,3640130.7446743934
2,1, 6, 1, 0,23, 0.00,15.00,Wednesday
24,4660687.972993988
36,427500.0
72,337500.0
1207,592840.2253004119
1270,3640347.747693575
2,1, 6, 1, 0,23,15.00,30.00,Wednesday
24,4660900.745566415
36,427500.0
72,337500.0
1207,592840.2253004119
1270,3640560.5202660025
2,1, 6, 1, 0,23,30.00,45.00,Wednesday
24,4661109.287731902
36,427500.0
72,337500.0
1207,592840.2253004119
1270,3640769.0624314896
2,1, 6, 1, 0,23,45.00,60.00,Wednesday
24,4661313.528318753
36,427500.0
72,337500.0
1207,592840.2253004119
1270,3640973.3030183404
2,1, 6, 1, 0,24, 0.00,15.00,Wednesday
24,4661765.121480793
36,427500.0
72,337500.0
1207,592840.2253004119
1270,3641424.89618038
2,1, 6, 1, 0,24,15.00,30.00,Wednesday
24,4662215.983651246
36,427500.0
72,337500.0
1207,592840.2253004119
1270,3641875.758350834
2,1, 6, 1, 0,24,30.00,45.00,Wednesday
24,4662666.062258321
36,427500.0
72,337500.0
1207,592840.2253004119
1270,3642325.8369579082
2,1, 6, 1, 0,24,45.00,60.00,Wednesday
24,4663115.224533446
36,427500.0
72,337500.0
1207,592840.2253004119
1270,3642774.9992330335
2,2, 6, 2, 0, 1, 0.00,15.00,Thursday
24,4663291.729379595
36,427500.0
72,337500.0
1207,592840.2253004119
1270,3642951.5040791826
2,2, 6, 2, 0, 1,15.00,30.00,Thursday
24,4663467.142818697
36,427500.0
72,337500.0
1207,592840.2253004119
1270,3643126.9175182846
2,2, 6, 2, 0, 1,30.00,45.00,Thursday
24,4663641.44224775
36,427500.0
72,337500.0
1207,592840.2253004119
1270,3643301.216947338
2,2, 6, 2, 0, 1,45.00,60.00,Thursday
24,4663814.644780418
36,427500.0
72,337500.0
1207,592840.2253004119
1270,3643474.4194800053
2,2, 6, 2, 0, 2, 0.00,15.00,Thursday
24,4664254.36539313
36,427500.0
72,337500.0
1207,592840.2253004119
1270,3643914.140092718
2,2, 6, 2, 0, 2,15.00,30.00,Thursday
24,4664697.216072976
36,427500.0
72,337500.0
1207,592840.2253004119
1270,3644356.990772563
2,2, 6, 2, 0, 2,30.00,45.00,Thursday
24,4665143.242331581
36,427500.0
72,337500.0
1207,592840.2253004119
1270,3644803.0170311686
2,2, 6, 2, 0, 2,45.00,60.00,Thursday
24,4665592.442990467
36,427500.0
72,337500.0
1207,592840.2253004119
1270,3645252.2176900543
2,2, 6, 2, 0, 3, 0.00,15.00,Thursday
24,4665763.860611271
36,427500.0
72,337500.0
1207,592840.2253004119
1270,3645423.635310859
2,2, 6, 2, 0, 3,15.00,30.00,Thursday
24,4665934.07387015
36,427500.0
72,337500.0
1207,592840.2253004119
1270,3645593.848569738
2,2, 6, 2, 0, 3,30.00,45.00,Thursday
24,4666103.099911999
36,427500.0
72,337500.0
1207,592840.2253004119
1270,3645762.8746115863
2,2, 6, 2, 0, 3,45.00,60.00,Thursday
24,4666270.890684249
36,427500.0
72,337500.0
1207,592840.2253004119
1270,3645930.6653838363
2,2, 6, 2, 0, 4, 0.00,15.00,Thursday
24,4666160.13437221
36,427500.0
72,337500.0
1207,592840.2253004119
1270,3645819.9090717975
2,2, 6, 2, 0, 4,15.00,30.00,Thursday
24,4666048.63829265
36,427500.0
72,337500.0
1207,592840.2253004119
1270,3645708.412992237
2,2, 6, 2, 0, 4,30.00,45.00,Thursday
24,4665936.414768321
36,427500.0
72,337500.0
1207,592840.2253004119
1270,3645596.189467909
2,2, 6, 2, 0, 4,45.00,60.00,Thursday
24,4665823.525018746
36,427500.0
72,337500.0
1207,592840.2253004119
1270,3645483.299718334
2,2, 6, 2, 0, 5, 0.00,15.00,Thursday
24,4665986.442479094
36,427500.0
72,337500.0
1207,592840.2253004119
1270,3645646.217178681
2,2, 6, 2, 0, 5,15.00,30.00,Thursday
24,4666148.079300258
36,427500.0
72,337500.0
1207,592840.2253004119
1270,3645807.8539998457
2,2, 6, 2, 0, 5,30.00,45.00,Thursday
24,4666308.459016458
36,427500.0
72,337500.0
1207,592840.2253004119
1270,3645968.233716046
2,2, 6, 2, 0, 5,45.00,60.00,Thursday
24,4666467.557051687
36,427500.0
72,337500.0
1207,592840.2253004119
1270,3646127.3317512744
2,2, 6, 2, 0, 6, 0.00,15.00,Thursday
24,4666345.355743387
36,427500.0
72,337500.0
1207,592840.2253004119
1270,3646005.130442974
2,2, 6, 2, 0, 6,15.00,30.00,Thursday
24,4666222.53283135
36,427500.0
72,337500.0
1207,592840.2253004119
1270,3645882.307530938
2,2, 6, 2, 0, 6,30.00,45.00,Thursday
24,4666099.08666873
36,427500.0
72,337500.0
1207,592840.2253004119
1270,3645758.8613683176
2,2, 6, 2, 0, 6,45.00,60.00,Thursday
24,4665975.093637165
36,427500.0
72,337500.0
1207,592840.2253004119
1270,3645634.868336752
2,2, 6, 2, 0, 7, 0.00,15.00,Thursday
24,4666426.836206183
36,427500.0
72,337500.0
1207,592840.2253004119
1270,3646086.61090577
2,2, 6, 2, 0, 7,15.00,30.00,Thursday
24,4666884.476578102
36,427500.0
72,337500.0
1207,592840.2253004119
1270,3646544.25127769
2,2, 6, 2, 0, 7,30.00,45.00,Thursday
24,4667348.100234559
36,427500.0
72,337500.0
1207,592840.2253004119
1270,3647007.8749341466
2,2, 6, 2, 0, 7,45.00,60.00,Thursday
24,4667817.749180331
36,427500.0
72,337500.0
1207,592840.2253004119
1270,3647477.5238799187
2,2, 6, 2, 0, 8, 0.00,15.00,Thursday
24,4668001.4055906795
36,427500.0
72,337500.0
1207,592840.2253004119
1270,3647661.1802902673
2,2, 6, 2, 0, 8,15.00,30.00,Thursday
24,4668185.833978246
36,427500.0
72,337500.0
1207,592840.2253004119
1270,3647845.608677834
2,2, 6, 2, 0, 8,30.00,45.00,Thursday
24,4668370.993809176
36,427500.0
72,337500.0
1207,592840.2253004119
1270,3648030.7685087635
2,2, 6, 2, 0, 8,45.00,60.00,Thursday
24,4668556.9405056825
36,427500.0
72,337500.0
1207,592840.2253004119
1270,3648216.7152052703
2,2, 6, 2, 0, 9, 0.00,15.00,Thursday
24,16132642.5390627
36,7875000.0
72,6075000.0
1207,675074.3754700646
1270,7582568.1635926375
2,2, 6, 2, 0, 9,15.00,30.00,Thursday
24,12129892.926498013
36,7875000.0
72,6075000.0
1207,605699.6139606814
1270,3649193.3125373307
2,2, 6, 2, 0, 9,30.00,45.00,Thursday
24,12141834.853038834
36,7875000.0
72,6075000.0
1207,617143.4566837968
1270,3649691.3963550394
2,2, 6, 2, 0, 9,45.00,60.00,Thursday
24,12150608.234298022
36,7875000.0
72,6075000.0
1207,625411.9729350947
1270,3650196.2613629266
2,2, 6, 2, 0,10, 0.00,15.00,Thursday
24,15067559.842866115
36,10462500.0
72,6412500.0
1207,682250.7737312452
1270,3922809.069134872
2,2, 6, 2, 0,10,15.00,30.00,Thursday
24,15277271.3035424
36,10462500.0
72,6412500.0
1207,703450.9303253824
1270,4111320.3732170193
2,2, 6, 2, 0,10,30.00,45.00,Thursday
24,15383021.044327715
36,10462500.0
72,6412500.0
1207,711402.3504938539
1270,4209118.693833862
2,2, 6, 2, 0,10,45.00,60.00,Thursday
24,15470524.115061622
36,10462500.0
72,6412500.0
1207,716556.339959597
1270,4291467.775102024
2,2, 6, 2, 0,11, 0.00,15.00,Thursday
24,15898522.36836646
36,10800000.0
72,6750000.0
1207,722796.882895276
1270,4375725.4854711825
2,2, 6, 2, 0,11,15.00,30.00,Thursday
24,15973708.736449976
36,10800000.0
72,6750000.0
1207,727754.3879078843
1270,4445954.3485420905
2,2, 6, 2, 0,11,30.00,45.00,Thursday
24,15974451.187172262
36,10800000.0
72,6750000.0
1207,726121.6489458659
1270,4448329.538226397
2,2, 6, 2, 0,11,45.00,60.00,Thursday
24,15950919.120646797
36,10800000.0
72,6750000.0
1207,722736.6611945627
1270,4428182.459452235
2,2, 6, 2, 0,12, 0.00,15.00,Thursday
24,15351093.226836892
36,10462500.0
72,6412500.0
1207,699784.4577551212
1270,4188808.7690817714
2,2, 6, 2, 0,12,15.00,30.00,Thursday
24,15144360.54579529
36,10462500.0
72,6412500.0
1207,680533.0970955496
1270,4001327.44869974
2,2, 6, 2, 0,12,30.00,45.00,Thursday
24,15154229.255089547
36,10462500.0
72,6412500.0
1207,679683.0875509852
1270,4012046.1675385633
2,2, 6, 2, 0,12,45.00,60.00,Thursday
24,15179268.61675726
36,10462500.0
72,6412500.0
1207,679983.5914762076
1270,4036785.025281054
2,2, 6, 2, 0,13, 0.00,15.00,Thursday
24,13777764.274673574
36,9450000.0
72,5400000.0
1207,650671.430930643
1270,3677092.843742932
2,2, 6, 2, 0,13,15.00,30.00,Thursday
24,13751181.285733996
36,9450000.0
72,5400000.0
1207,648188.387230943
1270,3652992.8985030544
2,2, 6, 2, 0,13,30.00,45.00,Thursday
24,13939005.687265113
36,9450000.0
72,5400000.0
1207,659650.6690004229
1270,3829355.0182646923
2,2, 6, 2, 0,13,45.00,60.00,Thursday
24,13952127.926921027
36,9450000.0
72,5400000.0
1207,660195.1881513916
1270,3841932.738769634
2,2, 6, 2, 0,14, 0.00,15.00,Thursday
24,15061188.93851855
36,10125000.0
72,6075000.0
1207,691083.2906826247
1270,4245105.647835926
2,2, 6, 2, 0,14,15.00,30.00,Thursday
24,15157569.890256304
36,10125000.0
72,6075000.0
1207,696595.2733076299
1270,4335974.616948674
2,2, 6, 2, 0,14,30.00,45.00,Thursday
24,15195929.98988732
36,10125000.0
72,6075000.0
1207,696902.5801060979
1270,4374027.409781222
2,2, 6, 2, 0,14,45.00,60.00,Thursday
24,15219864.483127456
36,10125000.0
72,6075000.0
1207,695896.5399157505
1270,4398967.943211708
2,2, 6, 2, 0,15, 0.00,15.00,Thursday
24,15511988.86236822
36,10350000.0
72,6750000.0
1207,700755.3522885425
1270,4461233.510079677
2,2, 6, 2, 0,15,15.00,30.00,Thursday
24,15275697.879372826
36,10350000.0
72,6750000.0
1207,680967.9648789484
1270,4244729.914493878
2,2, 6, 2, 0,15,30.00,45.00,Thursday
24,15270211.190791065
36,10350000.0
72,6750000.0
1207,680588.7942124216
1270,4239622.3965786435
2,2, 6, 2, 0,15,45.00,60.00,Thursday
24,15296153.644858684
36,10350000.0
72,6750000.0
1207,682389.8506905137
1270,4263763.794168171
2,2, 6, 2, 0,16, 0.00,15.00,Thursday
24,14730558.902649784
36,9900000.0
72,6750000.0
1207,673607.2970921672
1270,4156951.6055576177
2,2, 6, 2, 0,16,15.00,30.00,Thursday
24,14748824.078314679
36,9900000.0
72,6750000.0
1207,675039.254097013
1270,4173784.8242176664
2,2, 6, 2, 0,16,30.00,45.00,Thursday
24,15004950.951527108
36,9900000.0
72,6750000.0
1207,695458.2133683433
1270,4409492.738158766
2,2, 6, 2, 0,16,45.00,60.00,Thursday
24,15012217.867125325
36,9900000.0
72,6750000.0
1207,696020.9423825053
1270,4416196.924742821
2,2, 6, 2, 0,17, 0.00,15.00,Thursday
24,13803050.39140165
36,9000000.0
72,6750000.0
1207,672795.0317020179
1270,4130255.3596996297
2,2, 6, 2, 0,17,15.00,30.00,Thursday
24,13766661.508054126
36,9000000.0
72,6750000.0
1207,671675.8248098997
1270,4094985.683244226
2,2, 6, 2, 0,17,30.00,45.00,Thursday
24,13704944.670220984
36,9000000.0
72,6750000.0
1207,668411.507546691
1270,4036533.1626742934
2,2, 6, 2, 0,17,45.00,60.00,Thursday
24,13613074.900535624
36,9000000.0
72,6750000.0
1207,663172.0720207266
1270,3949902.828514897
2,2, 6, 2, 0,18, 0.00,15.00,Thursday
24,13528333.586388927
36,9000000.0
72,6750000.0
1207,657558.1441881906
1270,3870775.442200738
2,2, 6, 2, 0,18,15.00,30.00,Thursday
24,13294364.596198918
36,9000000.0
72,6750000.0
1207,640071.0055320074
1270,3654293.59066691
2,2, 6, 2, 0,18,30.00,45.00,Thursday
24,13289776.2404119
36,9000000.0
72,6750000.0
1207,636002.5877049228
1270,3653773.652706979
2,2, 6, 2, 0,18,45.00,60.00,Thursday
24,13287174.765473437
36,9000000.0
72,6750000.0
1207,633408.4293395372
1270,3653766.3361338987
2,2, 6, 2, 0,19, 0.00,15.00,Thursday
24,9656572.188198138
36,5400000.0
72,4050000.0
1207,603050.4843271931
1270,3653521.703870945
2,2, 6, 2, 0,19,15.00,30.00,Thursday
24,9653291.892508244
36,5400000.0
72,4050000.0
1207,600014.9985001106
1270,3653276.8940081336
2,2, 6, 2, 0,19,30.00,45.00,Thursday
24,9654900.634199774
36,5400000.0
72,4050000.0
1207,601868.7118869958
1270,3653031.92231278
2,2, 6, 2, 0,19,45.00,60.00,Thursday
24,9653787.683923354
36,5400000.0
72,4050000.0
1207,601000.8303564545
1270,3652786.8535669004
2,2, 6, 2, 0,20, 0.00,15.00,Thursday
24,8297276.798777152
36,4050000.0
72,2700000.0
1207,594965.0381635393
1270,3652311.760613612
2,2, 6, 2, 0,20,15.00,30.00,Thursday
24,8296046.125843412
36,4050000.0
72,2700000.0
1207,594203.2993937088
1270,3651842.826449703
2,2, 6, 2, 0,20,30.00,45.00,Thursday
24,8295280.225536314
36,4050000.0
72,2700000.0
1207,593900.3574505014
1270,3651379.868085813
2,2, 6, 2, 0,20,45.00,60.00,Thursday
24,8294613.257263286
36,4050000.0
72,2700000.0
1207,593690.5043131303
1270,3650922.752950155
2,2, 6, 2, 0,21, 0.00,15.00,Thursday
24,8294200.876397964
36,4050000.0
72,2700000.0
1207,593513.7243295095
1270,3650687.1520684534
2,2, 6, 2, 0,21,15.00,30.00,Thursday
24,8293697.850579623
36,4050000.0
72,2700000.0
1207,593246.4037802762
1270,3650451.446799346
2,2, 6, 2, 0,21,30.00,45.00,Thursday
24,8293219.807401181
36,4050000.0
72,2700000.0
1207,593004.106213893
1270,3650215.701187289
2,2, 6, 2, 0,21,45.00,60.00,Thursday
24,8526186.097572181
36,4050000.0
72,2700000.0
1207,592840.2253004119
1270,3883345.8722717687
2,2, 6, 2, 0,22, 0.00,15.00,Thursday
24,4670289.669168324
36,427500.0
72,337500.0
1207,592840.2253004119
1270,3649949.443867912
2,2, 6, 2, 0,22,15.00,30.00,Thursday
24,4670255.570045337
36,427500.0
72,337500.0
1207,592840.2253004119
1270,3649915.3447449245
2,2, 6, 2, 0,22,30.00,45.00,Thursday
24,4670217.836770499
36,427500.0
72,337500.0
1207,592840.2253004119
1270,3649877.611470087
2,2, 6, 2, 0,22,45.00,60.00,Thursday
24,4670176.626747807
36,427500.0
72,337500.0
1207,592840.2253004119
1270,3649836.4014473944
2,2, 6, 2, 0,23, 0.00,15.00,Thursday
24,4669930.106775241
36,427500.0
72,337500.0
1207,592840.2253004119
1270,3649589.8814748283
2,2, 6, 2, 0,23,15.00,30.00,Thursday
24,4669683.798535712
36,427500.0
72,337500.0
1207,592840.2253004119
1270,3649343.5732352994
2,2, 6, 2, 0,23,30.00,45.00,Thursday
24,4669437.793556886
36,427500.0
72,337500.0
1207,592840.2253004119
1270,3649097.5682564736
2,2, 6, 2, 0,23,45.00,60.00,Thursday
24,4669192.0278073875
36,427500.0
72,337500.0
1207,592840.2253004119
1270,3648851.8025069754
2,2, 6, 2, 0,24, 0.00,15.00,Thursday
24,4669139.386498403
36,427500.0
72,337500.0
1207,592840.2253004119
1270,3648799.16119799
2,2, 6, 2, 0,24,15.00,30.00,Thursday
24,4669083.420277647
36,427500.0
72,337500.0
1207,592840.2253004119
1270,3648743.1949772346
2,2, 6, 2, 0,24,30.00,45.00,Thursday
24,4669024.256013198
36,427500.0
72,337500.0
1207,592840.2253004119
1270,3648684.0307127857
2,2, 6, 2, 0,24,45.00,60.00,Thursday
24,4668961.918550319
36,427500.0
72,337500.0
1207,592840.2253004119
1270,3648621.693249907
2,3, 6, 3, 0, 1, 0.00,15.00,Friday
24,4668519.014358578
36,427500.0
72,337500.0
1207,592840.2253004119
1270,3648178.7890581656
2,3, 6, 3, 0, 1,15.00,30.00,Friday
24,4668081.674068713
36,427500.0
72,337500.0
1207,592840.2253004119
1270,3647741.4487683005
2,3, 6, 3, 0, 1,30.00,45.00,Friday
24,4667649.821957452
36,427500.0
72,337500.0
1207,592840.2253004119
1270,3647309.59665704
2,3, 6, 3, 0, 1,45.00,60.00,Friday
24,4667223.351861946
36,427500.0
72,337500.0
1207,592840.2253004119
1270,3646883.1265615337
2,3, 6, 3, 0, 2, 0.00,15.00,Friday
24,4666802.200964579
36,427500.0
72,337500.0
1207,592840.2253004119
1270,3646461.9756641667
2,3, 6, 3, 0, 2,15.00,30.00,Friday
24,4666386.207110211
36,427500.0
72,337500.0
1207,592840.2253004119
1270,3646045.981809799
2,3, 6, 3, 0, 2,30.00,45.00,Friday
24,4665975.329674123
36,427500.0
72,337500.0
1207,592840.2253004119
1270,3645635.1043737107
2,3, 6, 3, 0, 2,45.00,60.00,Friday
24,4665569.48343752
36,427500.0
72,337500.0
1207,592840.2253004119
1270,3645229.258137108
2,3, 6, 3, 0, 3, 0.00,15.00,Friday
24,4665168.531521385
36,427500.0
72,337500.0
1207,592840.2253004119
1270,3644828.306220972
2,3, 6, 3, 0, 3,15.00,30.00,Friday
24,4664772.453980437
36,427500.0
72,337500.0
1207,592840.2253004119
1270,3644432.2286800244
2,3, 6, 3, 0, 3,30.00,45.00,Friday
24,4664381.089260755
36,427500.0
72,337500.0
1207,592840.2253004119
1270,3644040.8639603425
2,3, 6, 3, 0, 3,45.00,60.00,Friday
24,4663994.438102425
36,427500.0
72,337500.0
1207,592840.2253004119
1270,3643654.2128020125
2,3, 6, 3, 0, 4, 0.00,15.00,Friday
24,4664081.044249251
36,427500.0
72,337500.0
1207,592840.2253004119
1270,3643740.818948838
2,3, 6, 3, 0, 4,15.00,30.00,Friday
24,4664163.274865542
36,427500.0
72,337500.0
1207,592840.2253004119
1270,3643823.049565129
2,3, 6, 3, 0, 4,30.00,45.00,Friday
24,4664241.134066064
36,427500.0
72,337500.0
1207,592840.2253004119
1270,3643900.9087656518
2,3, 6, 3, 0, 4,45.00,60.00,Friday
24,4664314.639730427
36,427500.0
72,337500.0
1207,592840.2253004119
1270,3643974.414430015
2,3, 6, 3, 0, 5, 0.00,15.00,Friday
24,4664537.793898453
36,427500.0
72,337500.0
1207,592840.2253004119
1270,3644197.5685980404
2,3, 6, 3, 0, 5,15.00,30.00,Friday
24,4664755.756426714
36,427500.0
72,337500.0
1207,592840.2253004119
1270,3644415.531126302
2,3, 6, 3, 0, 5,30.00,45.00,Friday
24,4664968.503393996
36,427500.0
72,337500.0
1207,592840.2253004119
1270,3644628.278093583
2,3, 6, 3, 0, 5,45.00,60.00,Friday
24,4665176.047657229
36,427500.0
72,337500.0
1207,592840.2253004119
1270,3644835.822356817
2,3, 6, 3, 0, 6, 0.00,15.00,Friday
24,4665225.069936676
36,427500.0
72,337500.0
1207,592840.2253004119
1270,3644884.844636264
2,3, 6, 3, 0, 6,15.00,30.00,Friday
24,4665269.805840191
36,427500.0
72,337500.0
1207,592840.2253004119
1270,3644929.580539779
2,3, 6, 3, 0, 6,30.00,45.00,Friday
24,4665310.282112575
36,427500.0
72,337500.0
1207,592840.2253004119
1270,3644970.0568121625
2,3, 6, 3, 0, 6,45.00,60.00,Friday
24,4665346.514730917
36,427500.0
72,337500.0
1207,592840.2253004119
1270,3645006.2894305047
2,3, 6, 3, 0, 7, 0.00,15.00,Friday
24,4666098.95084105
36,427500.0
72,337500.0
1207,592840.2253004119
1270,3645758.725540637
2,3, 6, 3, 0, 7,15.00,30.00,Friday
24,4666863.261374843
36,427500.0
72,337500.0
1207,592840.2253004119
1270,3646523.036074431
2,3, 6, 3, 0, 7,30.00,45.00,Friday
24,4667639.614915615
36,427500.0
72,337500.0
1207,592840.2253004119
1270,3647299.3896152023
2,3, 6, 3, 0, 7,45.00,60.00,Friday
24,4668428.1798439855
36,427500.0
72,337500.0
1207,592840.2253004119
1270,3648087.9545435733
2,3, 6, 3, 0, 8, 0.00,15.00,Friday